V -t * -v 1.0a5 -a 0
A -t * -n 1 -p 0 -o 0x7fffffff -c 30 -a 1
A -t * -h 1 -m 1073741823 -s 0
c -t * -i 1 -n Red
c -t * -i 2 -n Green
n -t * -a 4 -s 4 -S UP -v circle -c black -i black
n -t * -a 0 -s 0 -S UP -v circle -c black -i black
n -t * -a 5 -s 5 -S UP -v circle -c black -i black
n -t * -a 1 -s 1 -S UP -v circle -c black -i black
n -t * -a 2 -s 2 -S UP -v circle -c black -i black
n -t * -a 3 -s 3 -S UP -v circle -c black -i black
l -t * -s 0 -d 1 -S UP -r 1000000 -D 0.01 -c black
l -t * -s 1 -d 2 -S UP -r 1000000 -D 0.01 -c black
l -t * -s 2 -d 3 -S UP -r 1000000 -D 0.01 -c black
l -t * -s 3 -d 4 -S UP -r 1000000 -D 0.01 -c black
l -t * -s 4 -d 5 -S UP -r 1000000 -D 0.01 -c black
l -t * -s 0 -d 5 -S UP -r 1000000 -D 0.01 -c black
l -t * -s 1 -d 5 -S UP -r 1000000 -D 0.01 -c black
l -t * -s 1 -d 4 -S UP -r 1000000 -D 0.01 -c black
l -t * -s 2 -d 4 -S UP -r 1000000 -D 0.01 -c black
+ -t 0.000169788487334637 -s 0 -d 1 -p rtProtoDV -e 6 -c 0 -i 0 -a 0 -x {0.2 1.2 -1 ------- null}
- -t 0.000169788487334637 -s 0 -d 1 -p rtProtoDV -e 6 -c 0 -i 0 -a 0 -x {0.2 1.2 -1 ------- null}
h -t 0.000169788487334637 -s 0 -d 1 -p rtProtoDV -e 6 -c 0 -i 0 -a 0 -x {0.2 1.2 -1 ------- null}
+ -t 0.000169788487334637 -s 0 -d 5 -p rtProtoDV -e 6 -c 0 -i 1 -a 0 -x {0.2 5.1 -1 ------- null}
- -t 0.000169788487334637 -s 0 -d 5 -p rtProtoDV -e 6 -c 0 -i 1 -a 0 -x {0.2 5.1 -1 ------- null}
h -t 0.000169788487334637 -s 0 -d 5 -p rtProtoDV -e 6 -c 0 -i 1 -a 0 -x {0.2 5.1 -1 ------- null}
+ -t 0.00710233021858257 -s 2 -d 1 -p rtProtoDV -e 6 -c 0 -i 2 -a 0 -x {2.1 1.2 -1 ------- null}
- -t 0.00710233021858257 -s 2 -d 1 -p rtProtoDV -e 6 -c 0 -i 2 -a 0 -x {2.1 1.2 -1 ------- null}
h -t 0.00710233021858257 -s 2 -d 1 -p rtProtoDV -e 6 -c 0 -i 2 -a 0 -x {2.1 1.2 -1 ------- null}
+ -t 0.00710233021858257 -s 2 -d 3 -p rtProtoDV -e 6 -c 0 -i 3 -a 0 -x {2.1 3.3 -1 ------- null}
- -t 0.00710233021858257 -s 2 -d 3 -p rtProtoDV -e 6 -c 0 -i 3 -a 0 -x {2.1 3.3 -1 ------- null}
h -t 0.00710233021858257 -s 2 -d 3 -p rtProtoDV -e 6 -c 0 -i 3 -a 0 -x {2.1 3.3 -1 ------- null}
+ -t 0.00710233021858257 -s 2 -d 4 -p rtProtoDV -e 6 -c 0 -i 4 -a 0 -x {2.1 4.1 -1 ------- null}
- -t 0.00710233021858257 -s 2 -d 4 -p rtProtoDV -e 6 -c 0 -i 4 -a 0 -x {2.1 4.1 -1 ------- null}
h -t 0.00710233021858257 -s 2 -d 4 -p rtProtoDV -e 6 -c 0 -i 4 -a 0 -x {2.1 4.1 -1 ------- null}
r -t 0.0102177884873346 -s 0 -d 1 -p rtProtoDV -e 6 -c 0 -i 0 -a 0 -x {0.2 1.2 -1 ------- null}
r -t 0.0102177884873346 -s 0 -d 5 -p rtProtoDV -e 6 -c 0 -i 1 -a 0 -x {0.2 5.1 -1 ------- null}
r -t 0.0171503302185826 -s 2 -d 1 -p rtProtoDV -e 6 -c 0 -i 2 -a 0 -x {2.1 1.2 -1 ------- null}
+ -t 0.0171503302185826 -s 1 -d 0 -p rtProtoDV -e 6 -c 0 -i 5 -a 0 -x {1.2 0.2 -1 ------- null}
- -t 0.0171503302185826 -s 1 -d 0 -p rtProtoDV -e 6 -c 0 -i 5 -a 0 -x {1.2 0.2 -1 ------- null}
h -t 0.0171503302185826 -s 1 -d 0 -p rtProtoDV -e 6 -c 0 -i 5 -a 0 -x {1.2 0.2 -1 ------- null}
+ -t 0.0171503302185826 -s 1 -d 2 -p rtProtoDV -e 6 -c 0 -i 6 -a 0 -x {1.2 2.1 -1 ------- null}
- -t 0.0171503302185826 -s 1 -d 2 -p rtProtoDV -e 6 -c 0 -i 6 -a 0 -x {1.2 2.1 -1 ------- null}
h -t 0.0171503302185826 -s 1 -d 2 -p rtProtoDV -e 6 -c 0 -i 6 -a 0 -x {1.2 2.1 -1 ------- null}
+ -t 0.0171503302185826 -s 1 -d 4 -p rtProtoDV -e 6 -c 0 -i 7 -a 0 -x {1.2 4.1 -1 ------- null}
- -t 0.0171503302185826 -s 1 -d 4 -p rtProtoDV -e 6 -c 0 -i 7 -a 0 -x {1.2 4.1 -1 ------- null}
h -t 0.0171503302185826 -s 1 -d 4 -p rtProtoDV -e 6 -c 0 -i 7 -a 0 -x {1.2 4.1 -1 ------- null}
+ -t 0.0171503302185826 -s 1 -d 5 -p rtProtoDV -e 6 -c 0 -i 8 -a 0 -x {1.2 5.1 -1 ------- null}
- -t 0.0171503302185826 -s 1 -d 5 -p rtProtoDV -e 6 -c 0 -i 8 -a 0 -x {1.2 5.1 -1 ------- null}
h -t 0.0171503302185826 -s 1 -d 5 -p rtProtoDV -e 6 -c 0 -i 8 -a 0 -x {1.2 5.1 -1 ------- null}
r -t 0.0171503302185826 -s 2 -d 3 -p rtProtoDV -e 6 -c 0 -i 3 -a 0 -x {2.1 3.3 -1 ------- null}
+ -t 0.0171503302185826 -s 3 -d 2 -p rtProtoDV -e 6 -c 0 -i 9 -a 0 -x {3.3 2.1 -1 ------- null}
- -t 0.0171503302185826 -s 3 -d 2 -p rtProtoDV -e 6 -c 0 -i 9 -a 0 -x {3.3 2.1 -1 ------- null}
h -t 0.0171503302185826 -s 3 -d 2 -p rtProtoDV -e 6 -c 0 -i 9 -a 0 -x {3.3 2.1 -1 ------- null}
+ -t 0.0171503302185826 -s 3 -d 4 -p rtProtoDV -e 6 -c 0 -i 10 -a 0 -x {3.3 4.1 -1 ------- null}
- -t 0.0171503302185826 -s 3 -d 4 -p rtProtoDV -e 6 -c 0 -i 10 -a 0 -x {3.3 4.1 -1 ------- null}
h -t 0.0171503302185826 -s 3 -d 4 -p rtProtoDV -e 6 -c 0 -i 10 -a 0 -x {3.3 4.1 -1 ------- null}
r -t 0.0171503302185826 -s 2 -d 4 -p rtProtoDV -e 6 -c 0 -i 4 -a 0 -x {2.1 4.1 -1 ------- null}
r -t 0.0271983302185826 -s 1 -d 0 -p rtProtoDV -e 6 -c 0 -i 5 -a 0 -x {1.2 0.2 -1 ------- null}
+ -t 0.0271983302185826 -s 0 -d 1 -p rtProtoDV -e 6 -c 0 -i 11 -a 0 -x {0.2 1.2 -1 ------- null}
- -t 0.0271983302185826 -s 0 -d 1 -p rtProtoDV -e 6 -c 0 -i 11 -a 0 -x {0.2 1.2 -1 ------- null}
h -t 0.0271983302185826 -s 0 -d 1 -p rtProtoDV -e 6 -c 0 -i 11 -a 0 -x {0.2 1.2 -1 ------- null}
+ -t 0.0271983302185826 -s 0 -d 5 -p rtProtoDV -e 6 -c 0 -i 12 -a 0 -x {0.2 5.1 -1 ------- null}
- -t 0.0271983302185826 -s 0 -d 5 -p rtProtoDV -e 6 -c 0 -i 12 -a 0 -x {0.2 5.1 -1 ------- null}
h -t 0.0271983302185826 -s 0 -d 5 -p rtProtoDV -e 6 -c 0 -i 12 -a 0 -x {0.2 5.1 -1 ------- null}
r -t 0.0271983302185826 -s 1 -d 2 -p rtProtoDV -e 6 -c 0 -i 6 -a 0 -x {1.2 2.1 -1 ------- null}
+ -t 0.0271983302185826 -s 2 -d 1 -p rtProtoDV -e 6 -c 0 -i 13 -a 0 -x {2.1 1.2 -1 ------- null}
- -t 0.0271983302185826 -s 2 -d 1 -p rtProtoDV -e 6 -c 0 -i 13 -a 0 -x {2.1 1.2 -1 ------- null}
h -t 0.0271983302185826 -s 2 -d 1 -p rtProtoDV -e 6 -c 0 -i 13 -a 0 -x {2.1 1.2 -1 ------- null}
+ -t 0.0271983302185826 -s 2 -d 3 -p rtProtoDV -e 6 -c 0 -i 14 -a 0 -x {2.1 3.3 -1 ------- null}
- -t 0.0271983302185826 -s 2 -d 3 -p rtProtoDV -e 6 -c 0 -i 14 -a 0 -x {2.1 3.3 -1 ------- null}
h -t 0.0271983302185826 -s 2 -d 3 -p rtProtoDV -e 6 -c 0 -i 14 -a 0 -x {2.1 3.3 -1 ------- null}
+ -t 0.0271983302185826 -s 2 -d 4 -p rtProtoDV -e 6 -c 0 -i 15 -a 0 -x {2.1 4.1 -1 ------- null}
- -t 0.0271983302185826 -s 2 -d 4 -p rtProtoDV -e 6 -c 0 -i 15 -a 0 -x {2.1 4.1 -1 ------- null}
h -t 0.0271983302185826 -s 2 -d 4 -p rtProtoDV -e 6 -c 0 -i 15 -a 0 -x {2.1 4.1 -1 ------- null}
r -t 0.0271983302185826 -s 1 -d 4 -p rtProtoDV -e 6 -c 0 -i 7 -a 0 -x {1.2 4.1 -1 ------- null}
+ -t 0.0271983302185826 -s 4 -d 1 -p rtProtoDV -e 6 -c 0 -i 16 -a 0 -x {4.1 1.2 -1 ------- null}
- -t 0.0271983302185826 -s 4 -d 1 -p rtProtoDV -e 6 -c 0 -i 16 -a 0 -x {4.1 1.2 -1 ------- null}
h -t 0.0271983302185826 -s 4 -d 1 -p rtProtoDV -e 6 -c 0 -i 16 -a 0 -x {4.1 1.2 -1 ------- null}
+ -t 0.0271983302185826 -s 4 -d 2 -p rtProtoDV -e 6 -c 0 -i 17 -a 0 -x {4.1 2.1 -1 ------- null}
- -t 0.0271983302185826 -s 4 -d 2 -p rtProtoDV -e 6 -c 0 -i 17 -a 0 -x {4.1 2.1 -1 ------- null}
h -t 0.0271983302185826 -s 4 -d 2 -p rtProtoDV -e 6 -c 0 -i 17 -a 0 -x {4.1 2.1 -1 ------- null}
+ -t 0.0271983302185826 -s 4 -d 3 -p rtProtoDV -e 6 -c 0 -i 18 -a 0 -x {4.1 3.3 -1 ------- null}
- -t 0.0271983302185826 -s 4 -d 3 -p rtProtoDV -e 6 -c 0 -i 18 -a 0 -x {4.1 3.3 -1 ------- null}
h -t 0.0271983302185826 -s 4 -d 3 -p rtProtoDV -e 6 -c 0 -i 18 -a 0 -x {4.1 3.3 -1 ------- null}
+ -t 0.0271983302185826 -s 4 -d 5 -p rtProtoDV -e 6 -c 0 -i 19 -a 0 -x {4.1 5.1 -1 ------- null}
- -t 0.0271983302185826 -s 4 -d 5 -p rtProtoDV -e 6 -c 0 -i 19 -a 0 -x {4.1 5.1 -1 ------- null}
h -t 0.0271983302185826 -s 4 -d 5 -p rtProtoDV -e 6 -c 0 -i 19 -a 0 -x {4.1 5.1 -1 ------- null}
r -t 0.0271983302185826 -s 1 -d 5 -p rtProtoDV -e 6 -c 0 -i 8 -a 0 -x {1.2 5.1 -1 ------- null}
+ -t 0.0271983302185826 -s 5 -d 0 -p rtProtoDV -e 6 -c 0 -i 20 -a 0 -x {5.1 0.2 -1 ------- null}
- -t 0.0271983302185826 -s 5 -d 0 -p rtProtoDV -e 6 -c 0 -i 20 -a 0 -x {5.1 0.2 -1 ------- null}
h -t 0.0271983302185826 -s 5 -d 0 -p rtProtoDV -e 6 -c 0 -i 20 -a 0 -x {5.1 0.2 -1 ------- null}
+ -t 0.0271983302185826 -s 5 -d 1 -p rtProtoDV -e 6 -c 0 -i 21 -a 0 -x {5.1 1.2 -1 ------- null}
- -t 0.0271983302185826 -s 5 -d 1 -p rtProtoDV -e 6 -c 0 -i 21 -a 0 -x {5.1 1.2 -1 ------- null}
h -t 0.0271983302185826 -s 5 -d 1 -p rtProtoDV -e 6 -c 0 -i 21 -a 0 -x {5.1 1.2 -1 ------- null}
+ -t 0.0271983302185826 -s 5 -d 4 -p rtProtoDV -e 6 -c 0 -i 22 -a 0 -x {5.1 4.1 -1 ------- null}
- -t 0.0271983302185826 -s 5 -d 4 -p rtProtoDV -e 6 -c 0 -i 22 -a 0 -x {5.1 4.1 -1 ------- null}
h -t 0.0271983302185826 -s 5 -d 4 -p rtProtoDV -e 6 -c 0 -i 22 -a 0 -x {5.1 4.1 -1 ------- null}
r -t 0.0271983302185826 -s 3 -d 2 -p rtProtoDV -e 6 -c 0 -i 9 -a 0 -x {3.3 2.1 -1 ------- null}
r -t 0.0271983302185826 -s 3 -d 4 -p rtProtoDV -e 6 -c 0 -i 10 -a 0 -x {3.3 4.1 -1 ------- null}
r -t 0.0372463302185826 -s 0 -d 1 -p rtProtoDV -e 6 -c 0 -i 11 -a 0 -x {0.2 1.2 -1 ------- null}
r -t 0.0372463302185826 -s 0 -d 5 -p rtProtoDV -e 6 -c 0 -i 12 -a 0 -x {0.2 5.1 -1 ------- null}
r -t 0.0372463302185826 -s 2 -d 1 -p rtProtoDV -e 6 -c 0 -i 13 -a 0 -x {2.1 1.2 -1 ------- null}
r -t 0.0372463302185826 -s 2 -d 3 -p rtProtoDV -e 6 -c 0 -i 14 -a 0 -x {2.1 3.3 -1 ------- null}
+ -t 0.0372463302185826 -s 3 -d 2 -p rtProtoDV -e 6 -c 0 -i 23 -a 0 -x {3.3 2.1 -1 ------- null}
- -t 0.0372463302185826 -s 3 -d 2 -p rtProtoDV -e 6 -c 0 -i 23 -a 0 -x {3.3 2.1 -1 ------- null}
h -t 0.0372463302185826 -s 3 -d 2 -p rtProtoDV -e 6 -c 0 -i 23 -a 0 -x {3.3 2.1 -1 ------- null}
+ -t 0.0372463302185826 -s 3 -d 4 -p rtProtoDV -e 6 -c 0 -i 24 -a 0 -x {3.3 4.1 -1 ------- null}
- -t 0.0372463302185826 -s 3 -d 4 -p rtProtoDV -e 6 -c 0 -i 24 -a 0 -x {3.3 4.1 -1 ------- null}
h -t 0.0372463302185826 -s 3 -d 4 -p rtProtoDV -e 6 -c 0 -i 24 -a 0 -x {3.3 4.1 -1 ------- null}
r -t 0.0372463302185826 -s 2 -d 4 -p rtProtoDV -e 6 -c 0 -i 15 -a 0 -x {2.1 4.1 -1 ------- null}
r -t 0.0372463302185826 -s 4 -d 1 -p rtProtoDV -e 6 -c 0 -i 16 -a 0 -x {4.1 1.2 -1 ------- null}
r -t 0.0372463302185826 -s 4 -d 2 -p rtProtoDV -e 6 -c 0 -i 17 -a 0 -x {4.1 2.1 -1 ------- null}
r -t 0.0372463302185826 -s 4 -d 3 -p rtProtoDV -e 6 -c 0 -i 18 -a 0 -x {4.1 3.3 -1 ------- null}
+ -t 0.0372463302185826 -s 3 -d 2 -p rtProtoDV -e 6 -c 0 -i 25 -a 0 -x {3.3 2.1 -1 ------- null}
+ -t 0.0372463302185826 -s 3 -d 4 -p rtProtoDV -e 6 -c 0 -i 26 -a 0 -x {3.3 4.1 -1 ------- null}
r -t 0.0372463302185826 -s 4 -d 5 -p rtProtoDV -e 6 -c 0 -i 19 -a 0 -x {4.1 5.1 -1 ------- null}
r -t 0.0372463302185826 -s 5 -d 0 -p rtProtoDV -e 6 -c 0 -i 20 -a 0 -x {5.1 0.2 -1 ------- null}
+ -t 0.0372463302185826 -s 0 -d 1 -p rtProtoDV -e 6 -c 0 -i 27 -a 0 -x {0.2 1.2 -1 ------- null}
- -t 0.0372463302185826 -s 0 -d 1 -p rtProtoDV -e 6 -c 0 -i 27 -a 0 -x {0.2 1.2 -1 ------- null}
h -t 0.0372463302185826 -s 0 -d 1 -p rtProtoDV -e 6 -c 0 -i 27 -a 0 -x {0.2 1.2 -1 ------- null}
+ -t 0.0372463302185826 -s 0 -d 5 -p rtProtoDV -e 6 -c 0 -i 28 -a 0 -x {0.2 5.1 -1 ------- null}
- -t 0.0372463302185826 -s 0 -d 5 -p rtProtoDV -e 6 -c 0 -i 28 -a 0 -x {0.2 5.1 -1 ------- null}
h -t 0.0372463302185826 -s 0 -d 5 -p rtProtoDV -e 6 -c 0 -i 28 -a 0 -x {0.2 5.1 -1 ------- null}
r -t 0.0372463302185826 -s 5 -d 1 -p rtProtoDV -e 6 -c 0 -i 21 -a 0 -x {5.1 1.2 -1 ------- null}
r -t 0.0372463302185826 -s 5 -d 4 -p rtProtoDV -e 6 -c 0 -i 22 -a 0 -x {5.1 4.1 -1 ------- null}
- -t 0.0372943302185826 -s 3 -d 2 -p rtProtoDV -e 6 -c 0 -i 25 -a 0 -x {3.3 2.1 -1 ------- null}
h -t 0.0372943302185826 -s 3 -d 2 -p rtProtoDV -e 6 -c 0 -i 25 -a 0 -x {3.3 2.1 -1 ------- null}
- -t 0.0372943302185826 -s 3 -d 4 -p rtProtoDV -e 6 -c 0 -i 26 -a 0 -x {3.3 4.1 -1 ------- null}
h -t 0.0372943302185826 -s 3 -d 4 -p rtProtoDV -e 6 -c 0 -i 26 -a 0 -x {3.3 4.1 -1 ------- null}
+ -t 0.04406133552271 -s 3 -d 2 -p rtProtoDV -e 6 -c 0 -i 29 -a 0 -x {3.3 2.1 -1 ------- null}
- -t 0.04406133552271 -s 3 -d 2 -p rtProtoDV -e 6 -c 0 -i 29 -a 0 -x {3.3 2.1 -1 ------- null}
h -t 0.04406133552271 -s 3 -d 2 -p rtProtoDV -e 6 -c 0 -i 29 -a 0 -x {3.3 2.1 -1 ------- null}
+ -t 0.04406133552271 -s 3 -d 4 -p rtProtoDV -e 6 -c 0 -i 30 -a 0 -x {3.3 4.1 -1 ------- null}
- -t 0.04406133552271 -s 3 -d 4 -p rtProtoDV -e 6 -c 0 -i 30 -a 0 -x {3.3 4.1 -1 ------- null}
h -t 0.04406133552271 -s 3 -d 4 -p rtProtoDV -e 6 -c 0 -i 30 -a 0 -x {3.3 4.1 -1 ------- null}
r -t 0.0472943302185826 -s 3 -d 2 -p rtProtoDV -e 6 -c 0 -i 23 -a 0 -x {3.3 2.1 -1 ------- null}
r -t 0.0472943302185826 -s 3 -d 4 -p rtProtoDV -e 6 -c 0 -i 24 -a 0 -x {3.3 4.1 -1 ------- null}
r -t 0.0472943302185826 -s 0 -d 1 -p rtProtoDV -e 6 -c 0 -i 27 -a 0 -x {0.2 1.2 -1 ------- null}
r -t 0.0472943302185826 -s 0 -d 5 -p rtProtoDV -e 6 -c 0 -i 28 -a 0 -x {0.2 5.1 -1 ------- null}
r -t 0.0473423302185826 -s 3 -d 2 -p rtProtoDV -e 6 -c 0 -i 25 -a 0 -x {3.3 2.1 -1 ------- null}
r -t 0.0473423302185826 -s 3 -d 4 -p rtProtoDV -e 6 -c 0 -i 26 -a 0 -x {3.3 4.1 -1 ------- null}
r -t 0.05410933552271 -s 3 -d 2 -p rtProtoDV -e 6 -c 0 -i 29 -a 0 -x {3.3 2.1 -1 ------- null}
r -t 0.05410933552271 -s 3 -d 4 -p rtProtoDV -e 6 -c 0 -i 30 -a 0 -x {3.3 4.1 -1 ------- null}
+ -t 0.1 -s 0 -d 5 -p cbr -e 500 -c 1 -i 31 -a 1 -x {0.0 3.0 0 ------- null}
- -t 0.1 -s 0 -d 5 -p cbr -e 500 -c 1 -i 31 -a 1 -x {0.0 3.0 0 ------- null}
h -t 0.1 -s 0 -d 5 -p cbr -e 500 -c 1 -i 31 -a 1 -x {0.0 3.0 -1 ------- null}
+ -t 0.1 -s 1 -d 2 -p cbr -e 200 -c 2 -i 32 -a 2 -x {1.0 3.1 0 ------- null}
- -t 0.1 -s 1 -d 2 -p cbr -e 200 -c 2 -i 32 -a 2 -x {1.0 3.1 0 ------- null}
h -t 0.1 -s 1 -d 2 -p cbr -e 200 -c 2 -i 32 -a 2 -x {1.0 3.1 -1 ------- null}
+ -t 0.105 -s 0 -d 5 -p cbr -e 500 -c 1 -i 33 -a 1 -x {0.0 3.0 1 ------- null}
- -t 0.105 -s 0 -d 5 -p cbr -e 500 -c 1 -i 33 -a 1 -x {0.0 3.0 1 ------- null}
h -t 0.105 -s 0 -d 5 -p cbr -e 500 -c 1 -i 33 -a 1 -x {0.0 3.0 -1 ------- null}
+ -t 0.105 -s 1 -d 2 -p cbr -e 200 -c 2 -i 34 -a 2 -x {1.0 3.1 1 ------- null}
- -t 0.105 -s 1 -d 2 -p cbr -e 200 -c 2 -i 34 -a 2 -x {1.0 3.1 1 ------- null}
h -t 0.105 -s 1 -d 2 -p cbr -e 200 -c 2 -i 34 -a 2 -x {1.0 3.1 -1 ------- null}
+ -t 0.11 -s 0 -d 5 -p cbr -e 500 -c 1 -i 35 -a 1 -x {0.0 3.0 2 ------- null}
- -t 0.11 -s 0 -d 5 -p cbr -e 500 -c 1 -i 35 -a 1 -x {0.0 3.0 2 ------- null}
h -t 0.11 -s 0 -d 5 -p cbr -e 500 -c 1 -i 35 -a 1 -x {0.0 3.0 -1 ------- null}
+ -t 0.11 -s 1 -d 2 -p cbr -e 200 -c 2 -i 36 -a 2 -x {1.0 3.1 2 ------- null}
- -t 0.11 -s 1 -d 2 -p cbr -e 200 -c 2 -i 36 -a 2 -x {1.0 3.1 2 ------- null}
h -t 0.11 -s 1 -d 2 -p cbr -e 200 -c 2 -i 36 -a 2 -x {1.0 3.1 -1 ------- null}
r -t 0.1116 -s 1 -d 2 -p cbr -e 200 -c 2 -i 32 -a 2 -x {1.0 3.1 0 ------- null}
+ -t 0.1116 -s 2 -d 3 -p cbr -e 200 -c 2 -i 32 -a 2 -x {1.0 3.1 0 ------- null}
- -t 0.1116 -s 2 -d 3 -p cbr -e 200 -c 2 -i 32 -a 2 -x {1.0 3.1 0 ------- null}
h -t 0.1116 -s 2 -d 3 -p cbr -e 200 -c 2 -i 32 -a 2 -x {1.0 3.1 -1 ------- null}
r -t 0.114 -s 0 -d 5 -p cbr -e 500 -c 1 -i 31 -a 1 -x {0.0 3.0 0 ------- null}
+ -t 0.114 -s 5 -d 1 -p cbr -e 500 -c 1 -i 31 -a 1 -x {0.0 3.0 0 ------- null}
- -t 0.114 -s 5 -d 1 -p cbr -e 500 -c 1 -i 31 -a 1 -x {0.0 3.0 0 ------- null}
h -t 0.114 -s 5 -d 1 -p cbr -e 500 -c 1 -i 31 -a 1 -x {0.0 3.0 -1 ------- null}
+ -t 0.115 -s 0 -d 5 -p cbr -e 500 -c 1 -i 37 -a 1 -x {0.0 3.0 3 ------- null}
- -t 0.115 -s 0 -d 5 -p cbr -e 500 -c 1 -i 37 -a 1 -x {0.0 3.0 3 ------- null}
h -t 0.115 -s 0 -d 5 -p cbr -e 500 -c 1 -i 37 -a 1 -x {0.0 3.0 -1 ------- null}
+ -t 0.115 -s 1 -d 2 -p cbr -e 200 -c 2 -i 38 -a 2 -x {1.0 3.1 3 ------- null}
- -t 0.115 -s 1 -d 2 -p cbr -e 200 -c 2 -i 38 -a 2 -x {1.0 3.1 3 ------- null}
h -t 0.115 -s 1 -d 2 -p cbr -e 200 -c 2 -i 38 -a 2 -x {1.0 3.1 -1 ------- null}
r -t 0.1166 -s 1 -d 2 -p cbr -e 200 -c 2 -i 34 -a 2 -x {1.0 3.1 1 ------- null}
+ -t 0.1166 -s 2 -d 3 -p cbr -e 200 -c 2 -i 34 -a 2 -x {1.0 3.1 1 ------- null}
- -t 0.1166 -s 2 -d 3 -p cbr -e 200 -c 2 -i 34 -a 2 -x {1.0 3.1 1 ------- null}
h -t 0.1166 -s 2 -d 3 -p cbr -e 200 -c 2 -i 34 -a 2 -x {1.0 3.1 -1 ------- null}
r -t 0.119 -s 0 -d 5 -p cbr -e 500 -c 1 -i 33 -a 1 -x {0.0 3.0 1 ------- null}
+ -t 0.119 -s 5 -d 1 -p cbr -e 500 -c 1 -i 33 -a 1 -x {0.0 3.0 1 ------- null}
- -t 0.119 -s 5 -d 1 -p cbr -e 500 -c 1 -i 33 -a 1 -x {0.0 3.0 1 ------- null}
h -t 0.119 -s 5 -d 1 -p cbr -e 500 -c 1 -i 33 -a 1 -x {0.0 3.0 -1 ------- null}
+ -t 0.12 -s 0 -d 5 -p cbr -e 500 -c 1 -i 39 -a 1 -x {0.0 3.0 4 ------- null}
- -t 0.12 -s 0 -d 5 -p cbr -e 500 -c 1 -i 39 -a 1 -x {0.0 3.0 4 ------- null}
h -t 0.12 -s 0 -d 5 -p cbr -e 500 -c 1 -i 39 -a 1 -x {0.0 3.0 -1 ------- null}
+ -t 0.12 -s 1 -d 2 -p cbr -e 200 -c 2 -i 40 -a 2 -x {1.0 3.1 4 ------- null}
- -t 0.12 -s 1 -d 2 -p cbr -e 200 -c 2 -i 40 -a 2 -x {1.0 3.1 4 ------- null}
h -t 0.12 -s 1 -d 2 -p cbr -e 200 -c 2 -i 40 -a 2 -x {1.0 3.1 -1 ------- null}
r -t 0.1216 -s 1 -d 2 -p cbr -e 200 -c 2 -i 36 -a 2 -x {1.0 3.1 2 ------- null}
+ -t 0.1216 -s 2 -d 3 -p cbr -e 200 -c 2 -i 36 -a 2 -x {1.0 3.1 2 ------- null}
- -t 0.1216 -s 2 -d 3 -p cbr -e 200 -c 2 -i 36 -a 2 -x {1.0 3.1 2 ------- null}
h -t 0.1216 -s 2 -d 3 -p cbr -e 200 -c 2 -i 36 -a 2 -x {1.0 3.1 -1 ------- null}
r -t 0.1232 -s 2 -d 3 -p cbr -e 200 -c 2 -i 32 -a 2 -x {1.0 3.1 0 ------- null}
r -t 0.124 -s 0 -d 5 -p cbr -e 500 -c 1 -i 35 -a 1 -x {0.0 3.0 2 ------- null}
+ -t 0.124 -s 5 -d 1 -p cbr -e 500 -c 1 -i 35 -a 1 -x {0.0 3.0 2 ------- null}
- -t 0.124 -s 5 -d 1 -p cbr -e 500 -c 1 -i 35 -a 1 -x {0.0 3.0 2 ------- null}
h -t 0.124 -s 5 -d 1 -p cbr -e 500 -c 1 -i 35 -a 1 -x {0.0 3.0 -1 ------- null}
+ -t 0.125 -s 0 -d 5 -p cbr -e 500 -c 1 -i 41 -a 1 -x {0.0 3.0 5 ------- null}
- -t 0.125 -s 0 -d 5 -p cbr -e 500 -c 1 -i 41 -a 1 -x {0.0 3.0 5 ------- null}
h -t 0.125 -s 0 -d 5 -p cbr -e 500 -c 1 -i 41 -a 1 -x {0.0 3.0 -1 ------- null}
+ -t 0.125 -s 1 -d 2 -p cbr -e 200 -c 2 -i 42 -a 2 -x {1.0 3.1 5 ------- null}
- -t 0.125 -s 1 -d 2 -p cbr -e 200 -c 2 -i 42 -a 2 -x {1.0 3.1 5 ------- null}
h -t 0.125 -s 1 -d 2 -p cbr -e 200 -c 2 -i 42 -a 2 -x {1.0 3.1 -1 ------- null}
r -t 0.1266 -s 1 -d 2 -p cbr -e 200 -c 2 -i 38 -a 2 -x {1.0 3.1 3 ------- null}
+ -t 0.1266 -s 2 -d 3 -p cbr -e 200 -c 2 -i 38 -a 2 -x {1.0 3.1 3 ------- null}
- -t 0.1266 -s 2 -d 3 -p cbr -e 200 -c 2 -i 38 -a 2 -x {1.0 3.1 3 ------- null}
h -t 0.1266 -s 2 -d 3 -p cbr -e 200 -c 2 -i 38 -a 2 -x {1.0 3.1 -1 ------- null}
r -t 0.128 -s 5 -d 1 -p cbr -e 500 -c 1 -i 31 -a 1 -x {0.0 3.0 0 ------- null}
+ -t 0.128 -s 1 -d 2 -p cbr -e 500 -c 1 -i 31 -a 1 -x {0.0 3.0 0 ------- null}
- -t 0.128 -s 1 -d 2 -p cbr -e 500 -c 1 -i 31 -a 1 -x {0.0 3.0 0 ------- null}
h -t 0.128 -s 1 -d 2 -p cbr -e 500 -c 1 -i 31 -a 1 -x {0.0 3.0 -1 ------- null}
r -t 0.1282 -s 2 -d 3 -p cbr -e 200 -c 2 -i 34 -a 2 -x {1.0 3.1 1 ------- null}
r -t 0.129 -s 0 -d 5 -p cbr -e 500 -c 1 -i 37 -a 1 -x {0.0 3.0 3 ------- null}
+ -t 0.129 -s 5 -d 1 -p cbr -e 500 -c 1 -i 37 -a 1 -x {0.0 3.0 3 ------- null}
- -t 0.129 -s 5 -d 1 -p cbr -e 500 -c 1 -i 37 -a 1 -x {0.0 3.0 3 ------- null}
h -t 0.129 -s 5 -d 1 -p cbr -e 500 -c 1 -i 37 -a 1 -x {0.0 3.0 -1 ------- null}
+ -t 0.13 -s 0 -d 5 -p cbr -e 500 -c 1 -i 43 -a 1 -x {0.0 3.0 6 ------- null}
- -t 0.13 -s 0 -d 5 -p cbr -e 500 -c 1 -i 43 -a 1 -x {0.0 3.0 6 ------- null}
h -t 0.13 -s 0 -d 5 -p cbr -e 500 -c 1 -i 43 -a 1 -x {0.0 3.0 -1 ------- null}
+ -t 0.13 -s 1 -d 2 -p cbr -e 200 -c 2 -i 44 -a 2 -x {1.0 3.1 6 ------- null}
r -t 0.1316 -s 1 -d 2 -p cbr -e 200 -c 2 -i 40 -a 2 -x {1.0 3.1 4 ------- null}
+ -t 0.1316 -s 2 -d 3 -p cbr -e 200 -c 2 -i 40 -a 2 -x {1.0 3.1 4 ------- null}
- -t 0.1316 -s 2 -d 3 -p cbr -e 200 -c 2 -i 40 -a 2 -x {1.0 3.1 4 ------- null}
h -t 0.1316 -s 2 -d 3 -p cbr -e 200 -c 2 -i 40 -a 2 -x {1.0 3.1 -1 ------- null}
- -t 0.132 -s 1 -d 2 -p cbr -e 200 -c 2 -i 44 -a 2 -x {1.0 3.1 6 ------- null}
h -t 0.132 -s 1 -d 2 -p cbr -e 200 -c 2 -i 44 -a 2 -x {1.0 3.1 -1 ------- null}
r -t 0.133 -s 5 -d 1 -p cbr -e 500 -c 1 -i 33 -a 1 -x {0.0 3.0 1 ------- null}
+ -t 0.133 -s 1 -d 2 -p cbr -e 500 -c 1 -i 33 -a 1 -x {0.0 3.0 1 ------- null}
r -t 0.1332 -s 2 -d 3 -p cbr -e 200 -c 2 -i 36 -a 2 -x {1.0 3.1 2 ------- null}
- -t 0.1336 -s 1 -d 2 -p cbr -e 500 -c 1 -i 33 -a 1 -x {0.0 3.0 1 ------- null}
h -t 0.1336 -s 1 -d 2 -p cbr -e 500 -c 1 -i 33 -a 1 -x {0.0 3.0 -1 ------- null}
r -t 0.134 -s 0 -d 5 -p cbr -e 500 -c 1 -i 39 -a 1 -x {0.0 3.0 4 ------- null}
+ -t 0.134 -s 5 -d 1 -p cbr -e 500 -c 1 -i 39 -a 1 -x {0.0 3.0 4 ------- null}
- -t 0.134 -s 5 -d 1 -p cbr -e 500 -c 1 -i 39 -a 1 -x {0.0 3.0 4 ------- null}
h -t 0.134 -s 5 -d 1 -p cbr -e 500 -c 1 -i 39 -a 1 -x {0.0 3.0 -1 ------- null}
+ -t 0.135 -s 0 -d 5 -p cbr -e 500 -c 1 -i 45 -a 1 -x {0.0 3.0 7 ------- null}
- -t 0.135 -s 0 -d 5 -p cbr -e 500 -c 1 -i 45 -a 1 -x {0.0 3.0 7 ------- null}
h -t 0.135 -s 0 -d 5 -p cbr -e 500 -c 1 -i 45 -a 1 -x {0.0 3.0 -1 ------- null}
+ -t 0.135 -s 1 -d 2 -p cbr -e 200 -c 2 -i 46 -a 2 -x {1.0 3.1 7 ------- null}
r -t 0.1366 -s 1 -d 2 -p cbr -e 200 -c 2 -i 42 -a 2 -x {1.0 3.1 5 ------- null}
+ -t 0.1366 -s 2 -d 3 -p cbr -e 200 -c 2 -i 42 -a 2 -x {1.0 3.1 5 ------- null}
- -t 0.1366 -s 2 -d 3 -p cbr -e 200 -c 2 -i 42 -a 2 -x {1.0 3.1 5 ------- null}
h -t 0.1366 -s 2 -d 3 -p cbr -e 200 -c 2 -i 42 -a 2 -x {1.0 3.1 -1 ------- null}
- -t 0.1376 -s 1 -d 2 -p cbr -e 200 -c 2 -i 46 -a 2 -x {1.0 3.1 7 ------- null}
h -t 0.1376 -s 1 -d 2 -p cbr -e 200 -c 2 -i 46 -a 2 -x {1.0 3.1 -1 ------- null}
r -t 0.138 -s 5 -d 1 -p cbr -e 500 -c 1 -i 35 -a 1 -x {0.0 3.0 2 ------- null}
+ -t 0.138 -s 1 -d 2 -p cbr -e 500 -c 1 -i 35 -a 1 -x {0.0 3.0 2 ------- null}
r -t 0.1382 -s 2 -d 3 -p cbr -e 200 -c 2 -i 38 -a 2 -x {1.0 3.1 3 ------- null}
r -t 0.139 -s 0 -d 5 -p cbr -e 500 -c 1 -i 41 -a 1 -x {0.0 3.0 5 ------- null}
+ -t 0.139 -s 5 -d 1 -p cbr -e 500 -c 1 -i 41 -a 1 -x {0.0 3.0 5 ------- null}
- -t 0.139 -s 5 -d 1 -p cbr -e 500 -c 1 -i 41 -a 1 -x {0.0 3.0 5 ------- null}
h -t 0.139 -s 5 -d 1 -p cbr -e 500 -c 1 -i 41 -a 1 -x {0.0 3.0 -1 ------- null}
- -t 0.1392 -s 1 -d 2 -p cbr -e 500 -c 1 -i 35 -a 1 -x {0.0 3.0 2 ------- null}
h -t 0.1392 -s 1 -d 2 -p cbr -e 500 -c 1 -i 35 -a 1 -x {0.0 3.0 -1 ------- null}
+ -t 0.14 -s 0 -d 5 -p cbr -e 500 -c 1 -i 47 -a 1 -x {0.0 3.0 8 ------- null}
- -t 0.14 -s 0 -d 5 -p cbr -e 500 -c 1 -i 47 -a 1 -x {0.0 3.0 8 ------- null}
h -t 0.14 -s 0 -d 5 -p cbr -e 500 -c 1 -i 47 -a 1 -x {0.0 3.0 -1 ------- null}
+ -t 0.14 -s 1 -d 2 -p cbr -e 200 -c 2 -i 48 -a 2 -x {1.0 3.1 8 ------- null}
r -t 0.142 -s 1 -d 2 -p cbr -e 500 -c 1 -i 31 -a 1 -x {0.0 3.0 0 ------- null}
+ -t 0.142 -s 2 -d 3 -p cbr -e 500 -c 1 -i 31 -a 1 -x {0.0 3.0 0 ------- null}
- -t 0.142 -s 2 -d 3 -p cbr -e 500 -c 1 -i 31 -a 1 -x {0.0 3.0 0 ------- null}
h -t 0.142 -s 2 -d 3 -p cbr -e 500 -c 1 -i 31 -a 1 -x {0.0 3.0 -1 ------- null}
r -t 0.143 -s 5 -d 1 -p cbr -e 500 -c 1 -i 37 -a 1 -x {0.0 3.0 3 ------- null}
+ -t 0.143 -s 1 -d 2 -p cbr -e 500 -c 1 -i 37 -a 1 -x {0.0 3.0 3 ------- null}
- -t 0.1432 -s 1 -d 2 -p cbr -e 200 -c 2 -i 48 -a 2 -x {1.0 3.1 8 ------- null}
h -t 0.1432 -s 1 -d 2 -p cbr -e 200 -c 2 -i 48 -a 2 -x {1.0 3.1 -1 ------- null}
r -t 0.1432 -s 2 -d 3 -p cbr -e 200 -c 2 -i 40 -a 2 -x {1.0 3.1 4 ------- null}
r -t 0.1436 -s 1 -d 2 -p cbr -e 200 -c 2 -i 44 -a 2 -x {1.0 3.1 6 ------- null}
+ -t 0.1436 -s 2 -d 3 -p cbr -e 200 -c 2 -i 44 -a 2 -x {1.0 3.1 6 ------- null}
r -t 0.144 -s 0 -d 5 -p cbr -e 500 -c 1 -i 43 -a 1 -x {0.0 3.0 6 ------- null}
+ -t 0.144 -s 5 -d 1 -p cbr -e 500 -c 1 -i 43 -a 1 -x {0.0 3.0 6 ------- null}
- -t 0.144 -s 5 -d 1 -p cbr -e 500 -c 1 -i 43 -a 1 -x {0.0 3.0 6 ------- null}
h -t 0.144 -s 5 -d 1 -p cbr -e 500 -c 1 -i 43 -a 1 -x {0.0 3.0 -1 ------- null}
- -t 0.1448 -s 1 -d 2 -p cbr -e 500 -c 1 -i 37 -a 1 -x {0.0 3.0 3 ------- null}
h -t 0.1448 -s 1 -d 2 -p cbr -e 500 -c 1 -i 37 -a 1 -x {0.0 3.0 -1 ------- null}
+ -t 0.145 -s 0 -d 5 -p cbr -e 500 -c 1 -i 49 -a 1 -x {0.0 3.0 9 ------- null}
- -t 0.145 -s 0 -d 5 -p cbr -e 500 -c 1 -i 49 -a 1 -x {0.0 3.0 9 ------- null}
h -t 0.145 -s 0 -d 5 -p cbr -e 500 -c 1 -i 49 -a 1 -x {0.0 3.0 -1 ------- null}
+ -t 0.145 -s 1 -d 2 -p cbr -e 200 -c 2 -i 50 -a 2 -x {1.0 3.1 9 ------- null}
- -t 0.146 -s 2 -d 3 -p cbr -e 200 -c 2 -i 44 -a 2 -x {1.0 3.1 6 ------- null}
h -t 0.146 -s 2 -d 3 -p cbr -e 200 -c 2 -i 44 -a 2 -x {1.0 3.1 -1 ------- null}
r -t 0.1476 -s 1 -d 2 -p cbr -e 500 -c 1 -i 33 -a 1 -x {0.0 3.0 1 ------- null}
+ -t 0.1476 -s 2 -d 3 -p cbr -e 500 -c 1 -i 33 -a 1 -x {0.0 3.0 1 ------- null}
- -t 0.1476 -s 2 -d 3 -p cbr -e 500 -c 1 -i 33 -a 1 -x {0.0 3.0 1 ------- null}
h -t 0.1476 -s 2 -d 3 -p cbr -e 500 -c 1 -i 33 -a 1 -x {0.0 3.0 -1 ------- null}
r -t 0.148 -s 5 -d 1 -p cbr -e 500 -c 1 -i 39 -a 1 -x {0.0 3.0 4 ------- null}
+ -t 0.148 -s 1 -d 2 -p cbr -e 500 -c 1 -i 39 -a 1 -x {0.0 3.0 4 ------- null}
r -t 0.1482 -s 2 -d 3 -p cbr -e 200 -c 2 -i 42 -a 2 -x {1.0 3.1 5 ------- null}
- -t 0.1488 -s 1 -d 2 -p cbr -e 200 -c 2 -i 50 -a 2 -x {1.0 3.1 9 ------- null}
h -t 0.1488 -s 1 -d 2 -p cbr -e 200 -c 2 -i 50 -a 2 -x {1.0 3.1 -1 ------- null}
r -t 0.149 -s 0 -d 5 -p cbr -e 500 -c 1 -i 45 -a 1 -x {0.0 3.0 7 ------- null}
+ -t 0.149 -s 5 -d 1 -p cbr -e 500 -c 1 -i 45 -a 1 -x {0.0 3.0 7 ------- null}
- -t 0.149 -s 5 -d 1 -p cbr -e 500 -c 1 -i 45 -a 1 -x {0.0 3.0 7 ------- null}
h -t 0.149 -s 5 -d 1 -p cbr -e 500 -c 1 -i 45 -a 1 -x {0.0 3.0 -1 ------- null}
r -t 0.1492 -s 1 -d 2 -p cbr -e 200 -c 2 -i 46 -a 2 -x {1.0 3.1 7 ------- null}
+ -t 0.1492 -s 2 -d 3 -p cbr -e 200 -c 2 -i 46 -a 2 -x {1.0 3.1 7 ------- null}
+ -t 0.15 -s 0 -d 5 -p cbr -e 500 -c 1 -i 51 -a 1 -x {0.0 3.0 10 ------- null}
- -t 0.15 -s 0 -d 5 -p cbr -e 500 -c 1 -i 51 -a 1 -x {0.0 3.0 10 ------- null}
h -t 0.15 -s 0 -d 5 -p cbr -e 500 -c 1 -i 51 -a 1 -x {0.0 3.0 -1 ------- null}
+ -t 0.15 -s 1 -d 2 -p cbr -e 200 -c 2 -i 52 -a 2 -x {1.0 3.1 10 ------- null}
- -t 0.1504 -s 1 -d 2 -p cbr -e 500 -c 1 -i 39 -a 1 -x {0.0 3.0 4 ------- null}
h -t 0.1504 -s 1 -d 2 -p cbr -e 500 -c 1 -i 39 -a 1 -x {0.0 3.0 -1 ------- null}
- -t 0.1516 -s 2 -d 3 -p cbr -e 200 -c 2 -i 46 -a 2 -x {1.0 3.1 7 ------- null}
h -t 0.1516 -s 2 -d 3 -p cbr -e 200 -c 2 -i 46 -a 2 -x {1.0 3.1 -1 ------- null}
r -t 0.153 -s 5 -d 1 -p cbr -e 500 -c 1 -i 41 -a 1 -x {0.0 3.0 5 ------- null}
+ -t 0.153 -s 1 -d 2 -p cbr -e 500 -c 1 -i 41 -a 1 -x {0.0 3.0 5 ------- null}
r -t 0.1532 -s 1 -d 2 -p cbr -e 500 -c 1 -i 35 -a 1 -x {0.0 3.0 2 ------- null}
+ -t 0.1532 -s 2 -d 3 -p cbr -e 500 -c 1 -i 35 -a 1 -x {0.0 3.0 2 ------- null}
- -t 0.1532 -s 2 -d 3 -p cbr -e 500 -c 1 -i 35 -a 1 -x {0.0 3.0 2 ------- null}
h -t 0.1532 -s 2 -d 3 -p cbr -e 500 -c 1 -i 35 -a 1 -x {0.0 3.0 -1 ------- null}
r -t 0.154 -s 0 -d 5 -p cbr -e 500 -c 1 -i 47 -a 1 -x {0.0 3.0 8 ------- null}
+ -t 0.154 -s 5 -d 1 -p cbr -e 500 -c 1 -i 47 -a 1 -x {0.0 3.0 8 ------- null}
- -t 0.154 -s 5 -d 1 -p cbr -e 500 -c 1 -i 47 -a 1 -x {0.0 3.0 8 ------- null}
h -t 0.154 -s 5 -d 1 -p cbr -e 500 -c 1 -i 47 -a 1 -x {0.0 3.0 -1 ------- null}
- -t 0.1544 -s 1 -d 2 -p cbr -e 200 -c 2 -i 52 -a 2 -x {1.0 3.1 10 ------- null}
h -t 0.1544 -s 1 -d 2 -p cbr -e 200 -c 2 -i 52 -a 2 -x {1.0 3.1 -1 ------- null}
r -t 0.1548 -s 1 -d 2 -p cbr -e 200 -c 2 -i 48 -a 2 -x {1.0 3.1 8 ------- null}
+ -t 0.1548 -s 2 -d 3 -p cbr -e 200 -c 2 -i 48 -a 2 -x {1.0 3.1 8 ------- null}
+ -t 0.155 -s 0 -d 5 -p cbr -e 500 -c 1 -i 53 -a 1 -x {0.0 3.0 11 ------- null}
- -t 0.155 -s 0 -d 5 -p cbr -e 500 -c 1 -i 53 -a 1 -x {0.0 3.0 11 ------- null}
h -t 0.155 -s 0 -d 5 -p cbr -e 500 -c 1 -i 53 -a 1 -x {0.0 3.0 -1 ------- null}
+ -t 0.155 -s 1 -d 2 -p cbr -e 200 -c 2 -i 54 -a 2 -x {1.0 3.1 11 ------- null}
- -t 0.156 -s 1 -d 2 -p cbr -e 500 -c 1 -i 41 -a 1 -x {0.0 3.0 5 ------- null}
h -t 0.156 -s 1 -d 2 -p cbr -e 500 -c 1 -i 41 -a 1 -x {0.0 3.0 -1 ------- null}
r -t 0.156 -s 2 -d 3 -p cbr -e 500 -c 1 -i 31 -a 1 -x {0.0 3.0 0 ------- null}
- -t 0.1572 -s 2 -d 3 -p cbr -e 200 -c 2 -i 48 -a 2 -x {1.0 3.1 8 ------- null}
h -t 0.1572 -s 2 -d 3 -p cbr -e 200 -c 2 -i 48 -a 2 -x {1.0 3.1 -1 ------- null}
r -t 0.1576 -s 2 -d 3 -p cbr -e 200 -c 2 -i 44 -a 2 -x {1.0 3.1 6 ------- null}
r -t 0.158 -s 5 -d 1 -p cbr -e 500 -c 1 -i 43 -a 1 -x {0.0 3.0 6 ------- null}
+ -t 0.158 -s 1 -d 2 -p cbr -e 500 -c 1 -i 43 -a 1 -x {0.0 3.0 6 ------- null}
r -t 0.1588 -s 1 -d 2 -p cbr -e 500 -c 1 -i 37 -a 1 -x {0.0 3.0 3 ------- null}
+ -t 0.1588 -s 2 -d 3 -p cbr -e 500 -c 1 -i 37 -a 1 -x {0.0 3.0 3 ------- null}
- -t 0.1588 -s 2 -d 3 -p cbr -e 500 -c 1 -i 37 -a 1 -x {0.0 3.0 3 ------- null}
h -t 0.1588 -s 2 -d 3 -p cbr -e 500 -c 1 -i 37 -a 1 -x {0.0 3.0 -1 ------- null}
r -t 0.159 -s 0 -d 5 -p cbr -e 500 -c 1 -i 49 -a 1 -x {0.0 3.0 9 ------- null}
+ -t 0.159 -s 5 -d 1 -p cbr -e 500 -c 1 -i 49 -a 1 -x {0.0 3.0 9 ------- null}
- -t 0.159 -s 5 -d 1 -p cbr -e 500 -c 1 -i 49 -a 1 -x {0.0 3.0 9 ------- null}
h -t 0.159 -s 5 -d 1 -p cbr -e 500 -c 1 -i 49 -a 1 -x {0.0 3.0 -1 ------- null}
- -t 0.16 -s 1 -d 2 -p cbr -e 200 -c 2 -i 54 -a 2 -x {1.0 3.1 11 ------- null}
h -t 0.16 -s 1 -d 2 -p cbr -e 200 -c 2 -i 54 -a 2 -x {1.0 3.1 -1 ------- null}
+ -t 0.16 -s 0 -d 5 -p cbr -e 500 -c 1 -i 55 -a 1 -x {0.0 3.0 12 ------- null}
- -t 0.16 -s 0 -d 5 -p cbr -e 500 -c 1 -i 55 -a 1 -x {0.0 3.0 12 ------- null}
h -t 0.16 -s 0 -d 5 -p cbr -e 500 -c 1 -i 55 -a 1 -x {0.0 3.0 -1 ------- null}
+ -t 0.16 -s 1 -d 2 -p cbr -e 200 -c 2 -i 56 -a 2 -x {1.0 3.1 12 ------- null}
r -t 0.1604 -s 1 -d 2 -p cbr -e 200 -c 2 -i 50 -a 2 -x {1.0 3.1 9 ------- null}
+ -t 0.1604 -s 2 -d 3 -p cbr -e 200 -c 2 -i 50 -a 2 -x {1.0 3.1 9 ------- null}
- -t 0.1616 -s 1 -d 2 -p cbr -e 500 -c 1 -i 43 -a 1 -x {0.0 3.0 6 ------- null}
h -t 0.1616 -s 1 -d 2 -p cbr -e 500 -c 1 -i 43 -a 1 -x {0.0 3.0 -1 ------- null}
r -t 0.1616 -s 2 -d 3 -p cbr -e 500 -c 1 -i 33 -a 1 -x {0.0 3.0 1 ------- null}
- -t 0.1628 -s 2 -d 3 -p cbr -e 200 -c 2 -i 50 -a 2 -x {1.0 3.1 9 ------- null}
h -t 0.1628 -s 2 -d 3 -p cbr -e 200 -c 2 -i 50 -a 2 -x {1.0 3.1 -1 ------- null}
r -t 0.163 -s 5 -d 1 -p cbr -e 500 -c 1 -i 45 -a 1 -x {0.0 3.0 7 ------- null}
+ -t 0.163 -s 1 -d 2 -p cbr -e 500 -c 1 -i 45 -a 1 -x {0.0 3.0 7 ------- null}
r -t 0.1632 -s 2 -d 3 -p cbr -e 200 -c 2 -i 46 -a 2 -x {1.0 3.1 7 ------- null}
r -t 0.164 -s 0 -d 5 -p cbr -e 500 -c 1 -i 51 -a 1 -x {0.0 3.0 10 ------- null}
+ -t 0.164 -s 5 -d 1 -p cbr -e 500 -c 1 -i 51 -a 1 -x {0.0 3.0 10 ------- null}
- -t 0.164 -s 5 -d 1 -p cbr -e 500 -c 1 -i 51 -a 1 -x {0.0 3.0 10 ------- null}