V -t * -v 1.0a5 -a 0
A -t * -n 1 -p 0 -o 0x7fffffff -c 30 -a 1
A -t * -h 1 -m 1073741823 -s 0
n -t * -a 0 -s 0 -S UP -v circle -c black -i black
n -t * -a 1 -s 1 -S UP -v circle -c black -i black
l -t * -s 0 -d 1 -S UP -r 1000000 -D 0.080000000000000002 -c black -o down-right
+ -t 0.1 -s 0 -d 1 -p tcp -e 40 -c 0 -i 0 -a 0 -x {0.0 1.0 0 ------- null}
- -t 0.1 -s 0 -d 1 -p tcp -e 40 -c 0 -i 0 -a 0 -x {0.0 1.0 0 ------- null}
h -t 0.1 -s 0 -d 1 -p tcp -e 40 -c 0 -i 0 -a 0 -x {0.0 1.0 -1 ------- null}
r -t 0.18032 -s 0 -d 1 -p tcp -e 40 -c 0 -i 0 -a 0 -x {0.0 1.0 0 ------- null}
+ -t 0.18032 -s 1 -d 0 -p ack -e 40 -c 0 -i 1 -a 0 -x {1.0 0.0 0 ------- null}
- -t 0.18032 -s 1 -d 0 -p ack -e 40 -c 0 -i 1 -a 0 -x {1.0 0.0 0 ------- null}
h -t 0.18032 -s 1 -d 0 -p ack -e 40 -c 0 -i 1 -a 0 -x {1.0 0.0 -1 ------- null}
r -t 0.26064 -s 1 -d 0 -p ack -e 40 -c 0 -i 1 -a 0 -x {1.0 0.0 0 ------- null}
+ -t 0.26064 -s 0 -d 1 -p tcp -e 1040 -c 0 -i 2 -a 0 -x {0.0 1.0 1 ------- null}
- -t 0.26064 -s 0 -d 1 -p tcp -e 1040 -c 0 -i 2 -a 0 -x {0.0 1.0 1 ------- null}
h -t 0.26064 -s 0 -d 1 -p tcp -e 1040 -c 0 -i 2 -a 0 -x {0.0 1.0 -1 ------- null}
+ -t 0.26064 -s 0 -d 1 -p tcp -e 1040 -c 0 -i 3 -a 0 -x {0.0 1.0 2 ------- null}
- -t 0.26896 -s 0 -d 1 -p tcp -e 1040 -c 0 -i 3 -a 0 -x {0.0 1.0 2 ------- null}
h -t 0.26896 -s 0 -d 1 -p tcp -e 1040 -c 0 -i 3 -a 0 -x {0.0 1.0 -1 ------- null}
r -t 0.34896 -s 0 -d 1 -p tcp -e 1040 -c 0 -i 2 -a 0 -x {0.0 1.0 1 ------- null}
+ -t 0.34896 -s 1 -d 0 -p ack -e 40 -c 0 -i 4 -a 0 -x {1.0 0.0 1 ------- null}
- -t 0.34896 -s 1 -d 0 -p ack -e 40 -c 0 -i 4 -a 0 -x {1.0 0.0 1 ------- null}
h -t 0.34896 -s 1 -d 0 -p ack -e 40 -c 0 -i 4 -a 0 -x {1.0 0.0 -1 ------- null}
r -t 0.35728 -s 0 -d 1 -p tcp -e 1040 -c 0 -i 3 -a 0 -x {0.0 1.0 2 ------- null}
+ -t 0.35728 -s 1 -d 0 -p ack -e 40 -c 0 -i 5 -a 0 -x {1.0 0.0 2 ------- null}
- -t 0.35728 -s 1 -d 0 -p ack -e 40 -c 0 -i 5 -a 0 -x {1.0 0.0 2 ------- null}
h -t 0.35728 -s 1 -d 0 -p ack -e 40 -c 0 -i 5 -a 0 -x {1.0 0.0 -1 ------- null}
r -t 0.42928 -s 1 -d 0 -p ack -e 40 -c 0 -i 4 -a 0 -x {1.0 0.0 1 ------- null}
+ -t 0.42928 -s 0 -d 1 -p tcp -e 1040 -c 0 -i 6 -a 0 -x {0.0 1.0 3 ------- null}
- -t 0.42928 -s 0 -d 1 -p tcp -e 1040 -c 0 -i 6 -a 0 -x {0.0 1.0 3 ------- null}
h -t 0.42928 -s 0 -d 1 -p tcp -e 1040 -c 0 -i 6 -a 0 -x {0.0 1.0 -1 ------- null}
+ -t 0.42928 -s 0 -d 1 -p tcp -e 1040 -c 0 -i 7 -a 0 -x {0.0 1.0 4 ------- null}
r -t 0.4376 -s 1 -d 0 -p ack -e 40 -c 0 -i 5 -a 0 -x {1.0 0.0 2 ------- null}
+ -t 0.4376 -s 0 -d 1 -p tcp -e 1040 -c 0 -i 8 -a 0 -x {0.0 1.0 5 ------- null}
+ -t 0.4376 -s 0 -d 1 -p tcp -e 1040 -c 0 -i 9 -a 0 -x {0.0 1.0 6 ------- null}
- -t 0.4376 -s 0 -d 1 -p tcp -e 1040 -c 0 -i 7 -a 0 -x {0.0 1.0 4 ------- null}
h -t 0.4376 -s 0 -d 1 -p tcp -e 1040 -c 0 -i 7 -a 0 -x {0.0 1.0 -1 ------- null}
- -t 0.44592 -s 0 -d 1 -p tcp -e 1040 -c 0 -i 8 -a 0 -x {0.0 1.0 5 ------- null}
h -t 0.44592 -s 0 -d 1 -p tcp -e 1040 -c 0 -i 8 -a 0 -x {0.0 1.0 -1 ------- null}
- -t 0.45424 -s 0 -d 1 -p tcp -e 1040 -c 0 -i 9 -a 0 -x {0.0 1.0 6 ------- null}
h -t 0.45424 -s 0 -d 1 -p tcp -e 1040 -c 0 -i 9 -a 0 -x {0.0 1.0 -1 ------- null}
r -t 0.5176 -s 0 -d 1 -p tcp -e 1040 -c 0 -i 6 -a 0 -x {0.0 1.0 3 ------- null}
+ -t 0.5176 -s 1 -d 0 -p ack -e 40 -c 0 -i 10 -a 0 -x {1.0 0.0 3 ------- null}
- -t 0.5176 -s 1 -d 0 -p ack -e 40 -c 0 -i 10 -a 0 -x {1.0 0.0 3 ------- null}
h -t 0.5176 -s 1 -d 0 -p ack -e 40 -c 0 -i 10 -a 0 -x {1.0 0.0 -1 ------- null}
r -t 0.52592 -s 0 -d 1 -p tcp -e 1040 -c 0 -i 7 -a 0 -x {0.0 1.0 4 ------- null}
+ -t 0.52592 -s 1 -d 0 -p ack -e 40 -c 0 -i 11 -a 0 -x {1.0 0.0 4 ------- null}
- -t 0.52592 -s 1 -d 0 -p ack -e 40 -c 0 -i 11 -a 0 -x {1.0 0.0 4 ------- null}
h -t 0.52592 -s 1 -d 0 -p ack -e 40 -c 0 -i 11 -a 0 -x {1.0 0.0 -1 ------- null}
r -t 0.53424 -s 0 -d 1 -p tcp -e 1040 -c 0 -i 8 -a 0 -x {0.0 1.0 5 ------- null}
+ -t 0.53424 -s 1 -d 0 -p ack -e 40 -c 0 -i 12 -a 0 -x {1.0 0.0 5 ------- null}
- -t 0.53424 -s 1 -d 0 -p ack -e 40 -c 0 -i 12 -a 0 -x {1.0 0.0 5 ------- null}
h -t 0.53424 -s 1 -d 0 -p ack -e 40 -c 0 -i 12 -a 0 -x {1.0 0.0 -1 ------- null}
r -t 0.54256 -s 0 -d 1 -p tcp -e 1040 -c 0 -i 9 -a 0 -x {0.0 1.0 6 ------- null}
+ -t 0.54256 -s 1 -d 0 -p ack -e 40 -c 0 -i 13 -a 0 -x {1.0 0.0 6 ------- null}
- -t 0.54256 -s 1 -d 0 -p ack -e 40 -c 0 -i 13 -a 0 -x {1.0 0.0 6 ------- null}
h -t 0.54256 -s 1 -d 0 -p ack -e 40 -c 0 -i 13 -a 0 -x {1.0 0.0 -1 ------- null}
r -t 0.59792 -s 1 -d 0 -p ack -e 40 -c 0 -i 10 -a 0 -x {1.0 0.0 3 ------- null}
+ -t 0.59792 -s 0 -d 1 -p tcp -e 1040 -c 0 -i 14 -a 0 -x {0.0 1.0 7 ------- null}
- -t 0.59792 -s 0 -d 1 -p tcp -e 1040 -c 0 -i 14 -a 0 -x {0.0 1.0 7 ------- null}
h -t 0.59792 -s 0 -d 1 -p tcp -e 1040 -c 0 -i 14 -a 0 -x {0.0 1.0 -1 ------- null}
+ -t 0.59792 -s 0 -d 1 -p tcp -e 1040 -c 0 -i 15 -a 0 -x {0.0 1.0 8 ------- null}
r -t 0.60624 -s 1 -d 0 -p ack -e 40 -c 0 -i 11 -a 0 -x {1.0 0.0 4 ------- null}
+ -t 0.60624 -s 0 -d 1 -p tcp -e 1040 -c 0 -i 16 -a 0 -x {0.0 1.0 9 ------- null}
+ -t 0.60624 -s 0 -d 1 -p tcp -e 1040 -c 0 -i 17 -a 0 -x {0.0 1.0 10 ------- null}
- -t 0.60624 -s 0 -d 1 -p tcp -e 1040 -c 0 -i 15 -a 0 -x {0.0 1.0 8 ------- null}
h -t 0.60624 -s 0 -d 1 -p tcp -e 1040 -c 0 -i 15 -a 0 -x {0.0 1.0 -1 ------- null}
r -t 0.61456 -s 1 -d 0 -p ack -e 40 -c 0 -i 12 -a 0 -x {1.0 0.0 5 ------- null}
+ -t 0.61456 -s 0 -d 1 -p tcp -e 1040 -c 0 -i 18 -a 0 -x {0.0 1.0 11 ------- null}
+ -t 0.61456 -s 0 -d 1 -p tcp -e 1040 -c 0 -i 19 -a 0 -x {0.0 1.0 12 ------- null}
- -t 0.61456 -s 0 -d 1 -p tcp -e 1040 -c 0 -i 16 -a 0 -x {0.0 1.0 9 ------- null}
h -t 0.61456 -s 0 -d 1 -p tcp -e 1040 -c 0 -i 16 -a 0 -x {0.0 1.0 -1 ------- null}
r -t 0.62288 -s 1 -d 0 -p ack -e 40 -c 0 -i 13 -a 0 -x {1.0 0.0 6 ------- null}
+ -t 0.62288 -s 0 -d 1 -p tcp -e 1040 -c 0 -i 20 -a 0 -x {0.0 1.0 13 ------- null}
+ -t 0.62288 -s 0 -d 1 -p tcp -e 1040 -c 0 -i 21 -a 0 -x {0.0 1.0 14 ------- null}
- -t 0.62288 -s 0 -d 1 -p tcp -e 1040 -c 0 -i 17 -a 0 -x {0.0 1.0 10 ------- null}
h -t 0.62288 -s 0 -d 1 -p tcp -e 1040 -c 0 -i 17 -a 0 -x {0.0 1.0 -1 ------- null}
- -t 0.6312 -s 0 -d 1 -p tcp -e 1040 -c 0 -i 18 -a 0 -x {0.0 1.0 11 ------- null}
h -t 0.6312 -s 0 -d 1 -p tcp -e 1040 -c 0 -i 18 -a 0 -x {0.0 1.0 -1 ------- null}
- -t 0.63952 -s 0 -d 1 -p tcp -e 1040 -c 0 -i 19 -a 0 -x {0.0 1.0 12 ------- null}
h -t 0.63952 -s 0 -d 1 -p tcp -e 1040 -c 0 -i 19 -a 0 -x {0.0 1.0 -1 ------- null}
- -t 0.64784 -s 0 -d 1 -p tcp -e 1040 -c 0 -i 20 -a 0 -x {0.0 1.0 13 ------- null}
h -t 0.64784 -s 0 -d 1 -p tcp -e 1040 -c 0 -i 20 -a 0 -x {0.0 1.0 -1 ------- null}
- -t 0.65616 -s 0 -d 1 -p tcp -e 1040 -c 0 -i 21 -a 0 -x {0.0 1.0 14 ------- null}
h -t 0.65616 -s 0 -d 1 -p tcp -e 1040 -c 0 -i 21 -a 0 -x {0.0 1.0 -1 ------- null}
r -t 0.68624 -s 0 -d 1 -p tcp -e 1040 -c 0 -i 14 -a 0 -x {0.0 1.0 7 ------- null}
+ -t 0.68624 -s 1 -d 0 -p ack -e 40 -c 0 -i 22 -a 0 -x {1.0 0.0 7 ------- null}
- -t 0.68624 -s 1 -d 0 -p ack -e 40 -c 0 -i 22 -a 0 -x {1.0 0.0 7 ------- null}
h -t 0.68624 -s 1 -d 0 -p ack -e 40 -c 0 -i 22 -a 0 -x {1.0 0.0 -1 ------- null}
r -t 0.69456 -s 0 -d 1 -p tcp -e 1040 -c 0 -i 15 -a 0 -x {0.0 1.0 8 ------- null}
+ -t 0.69456 -s 1 -d 0 -p ack -e 40 -c 0 -i 23 -a 0 -x {1.0 0.0 8 ------- null}
- -t 0.69456 -s 1 -d 0 -p ack -e 40 -c 0 -i 23 -a 0 -x {1.0 0.0 8 ------- null}
h -t 0.69456 -s 1 -d 0 -p ack -e 40 -c 0 -i 23 -a 0 -x {1.0 0.0 -1 ------- null}
r -t 0.70288 -s 0 -d 1 -p tcp -e 1040 -c 0 -i 16 -a 0 -x {0.0 1.0 9 ------- null}
+ -t 0.70288 -s 1 -d 0 -p ack -e 40 -c 0 -i 24 -a 0 -x {1.0 0.0 9 ------- null}
- -t 0.70288 -s 1 -d 0 -p ack -e 40 -c 0 -i 24 -a 0 -x {1.0 0.0 9 ------- null}
h -t 0.70288 -s 1 -d 0 -p ack -e 40 -c 0 -i 24 -a 0 -x {1.0 0.0 -1 ------- null}
r -t 0.7112 -s 0 -d 1 -p tcp -e 1040 -c 0 -i 17 -a 0 -x {0.0 1.0 10 ------- null}
+ -t 0.7112 -s 1 -d 0 -p ack -e 40 -c 0 -i 25 -a 0 -x {1.0 0.0 10 ------- null}
- -t 0.7112 -s 1 -d 0 -p ack -e 40 -c 0 -i 25 -a 0 -x {1.0 0.0 10 ------- null}
h -t 0.7112 -s 1 -d 0 -p ack -e 40 -c 0 -i 25 -a 0 -x {1.0 0.0 -1 ------- null}
r -t 0.71952 -s 0 -d 1 -p tcp -e 1040 -c 0 -i 18 -a 0 -x {0.0 1.0 11 ------- null}
+ -t 0.71952 -s 1 -d 0 -p ack -e 40 -c 0 -i 26 -a 0 -x {1.0 0.0 11 ------- null}
- -t 0.71952 -s 1 -d 0 -p ack -e 40 -c 0 -i 26 -a 0 -x {1.0 0.0 11 ------- null}
h -t 0.71952 -s 1 -d 0 -p ack -e 40 -c 0 -i 26 -a 0 -x {1.0 0.0 -1 ------- null}
r -t 0.72784 -s 0 -d 1 -p tcp -e 1040 -c 0 -i 19 -a 0 -x {0.0 1.0 12 ------- null}
+ -t 0.72784 -s 1 -d 0 -p ack -e 40 -c 0 -i 27 -a 0 -x {1.0 0.0 12 ------- null}
- -t 0.72784 -s 1 -d 0 -p ack -e 40 -c 0 -i 27 -a 0 -x {1.0 0.0 12 ------- null}
h -t 0.72784 -s 1 -d 0 -p ack -e 40 -c 0 -i 27 -a 0 -x {1.0 0.0 -1 ------- null}
r -t 0.73616 -s 0 -d 1 -p tcp -e 1040 -c 0 -i 20 -a 0 -x {0.0 1.0 13 ------- null}
+ -t 0.73616 -s 1 -d 0 -p ack -e 40 -c 0 -i 28 -a 0 -x {1.0 0.0 13 ------- null}
- -t 0.73616 -s 1 -d 0 -p ack -e 40 -c 0 -i 28 -a 0 -x {1.0 0.0 13 ------- null}
h -t 0.73616 -s 1 -d 0 -p ack -e 40 -c 0 -i 28 -a 0 -x {1.0 0.0 -1 ------- null}
r -t 0.74448 -s 0 -d 1 -p tcp -e 1040 -c 0 -i 21 -a 0 -x {0.0 1.0 14 ------- null}
+ -t 0.74448 -s 1 -d 0 -p ack -e 40 -c 0 -i 29 -a 0 -x {1.0 0.0 14 ------- null}
- -t 0.74448 -s 1 -d 0 -p ack -e 40 -c 0 -i 29 -a 0 -x {1.0 0.0 14 ------- null}
h -t 0.74448 -s 1 -d 0 -p ack -e 40 -c 0 -i 29 -a 0 -x {1.0 0.0 -1 ------- null}
r -t 0.76656 -s 1 -d 0 -p ack -e 40 -c 0 -i 22 -a 0 -x {1.0 0.0 7 ------- null}
+ -t 0.76656 -s 0 -d 1 -p tcp -e 1040 -c 0 -i 30 -a 0 -x {0.0 1.0 15 ------- null}
- -t 0.76656 -s 0 -d 1 -p tcp -e 1040 -c 0 -i 30 -a 0 -x {0.0 1.0 15 ------- null}
h -t 0.76656 -s 0 -d 1 -p tcp -e 1040 -c 0 -i 30 -a 0 -x {0.0 1.0 -1 ------- null}
+ -t 0.76656 -s 0 -d 1 -p tcp -e 1040 -c 0 -i 31 -a 0 -x {0.0 1.0 16 ------- null}
- -t 0.77488 -s 0 -d 1 -p tcp -e 1040 -c 0 -i 31 -a 0 -x {0.0 1.0 16 ------- null}
h -t 0.77488 -s 0 -d 1 -p tcp -e 1040 -c 0 -i 31 -a 0 -x {0.0 1.0 -1 ------- null}
r -t 0.77488 -s 1 -d 0 -p ack -e 40 -c 0 -i 23 -a 0 -x {1.0 0.0 8 ------- null}
+ -t 0.77488 -s 0 -d 1 -p tcp -e 1040 -c 0 -i 32 -a 0 -x {0.0 1.0 17 ------- null}
+ -t 0.77488 -s 0 -d 1 -p tcp -e 1040 -c 0 -i 33 -a 0 -x {0.0 1.0 18 ------- null}
r -t 0.7832 -s 1 -d 0 -p ack -e 40 -c 0 -i 24 -a 0 -x {1.0 0.0 9 ------- null}
+ -t 0.7832 -s 0 -d 1 -p tcp -e 1040 -c 0 -i 34 -a 0 -x {0.0 1.0 19 ------- null}
+ -t 0.7832 -s 0 -d 1 -p tcp -e 1040 -c 0 -i 35 -a 0 -x {0.0 1.0 20 ------- null}
- -t 0.7832 -s 0 -d 1 -p tcp -e 1040 -c 0 -i 32 -a 0 -x {0.0 1.0 17 ------- null}
h -t 0.7832 -s 0 -d 1 -p tcp -e 1040 -c 0 -i 32 -a 0 -x {0.0 1.0 -1 ------- null}
- -t 0.79152 -s 0 -d 1 -p tcp -e 1040 -c 0 -i 33 -a 0 -x {0.0 1.0 18 ------- null}
h -t 0.79152 -s 0 -d 1 -p tcp -e 1040 -c 0 -i 33 -a 0 -x {0.0 1.0 -1 ------- null}
r -t 0.79152 -s 1 -d 0 -p ack -e 40 -c 0 -i 25 -a 0 -x {1.0 0.0 10 ------- null}
+ -t 0.79152 -s 0 -d 1 -p tcp -e 1040 -c 0 -i 36 -a 0 -x {0.0 1.0 21 ------- null}
+ -t 0.79152 -s 0 -d 1 -p tcp -e 1040 -c 0 -i 37 -a 0 -x {0.0 1.0 22 ------- null}
r -t 0.79984 -s 1 -d 0 -p ack -e 40 -c 0 -i 26 -a 0 -x {1.0 0.0 11 ------- null}
+ -t 0.79984 -s 0 -d 1 -p tcp -e 1040 -c 0 -i 38 -a 0 -x {0.0 1.0 23 ------- null}
+ -t 0.79984 -s 0 -d 1 -p tcp -e 1040 -c 0 -i 39 -a 0 -x {0.0 1.0 24 ------- null}
- -t 0.79984 -s 0 -d 1 -p tcp -e 1040 -c 0 -i 34 -a 0 -x {0.0 1.0 19 ------- null}
h -t 0.79984 -s 0 -d 1 -p tcp -e 1040 -c 0 -i 34 -a 0 -x {0.0 1.0 -1 ------- null}
- -t 0.80816 -s 0 -d 1 -p tcp -e 1040 -c 0 -i 35 -a 0 -x {0.0 1.0 20 ------- null}
h -t 0.80816 -s 0 -d 1 -p tcp -e 1040 -c 0 -i 35 -a 0 -x {0.0 1.0 -1 ------- null}
r -t 0.80816 -s 1 -d 0 -p ack -e 40 -c 0 -i 27 -a 0 -x {1.0 0.0 12 ------- null}
+ -t 0.80816 -s 0 -d 1 -p tcp -e 1040 -c 0 -i 40 -a 0 -x {0.0 1.0 25 ------- null}
+ -t 0.80816 -s 0 -d 1 -p tcp -e 1040 -c 0 -i 41 -a 0 -x {0.0 1.0 26 ------- null}
r -t 0.81648 -s 1 -d 0 -p ack -e 40 -c 0 -i 28 -a 0 -x {1.0 0.0 13 ------- null}
+ -t 0.81648 -s 0 -d 1 -p tcp -e 1040 -c 0 -i 42 -a 0 -x {0.0 1.0 27 ------- null}
+ -t 0.81648 -s 0 -d 1 -p tcp -e 1040 -c 0 -i 43 -a 0 -x {0.0 1.0 28 ------- null}
- -t 0.81648 -s 0 -d 1 -p tcp -e 1040 -c 0 -i 36 -a 0 -x {0.0 1.0 21 ------- null}
h -t 0.81648 -s 0 -d 1 -p tcp -e 1040 -c 0 -i 36 -a 0 -x {0.0 1.0 -1 ------- null}
- -t 0.8248 -s 0 -d 1 -p tcp -e 1040 -c 0 -i 37 -a 0 -x {0.0 1.0 22 ------- null}
h -t 0.8248 -s 0 -d 1 -p tcp -e 1040 -c 0 -i 37 -a 0 -x {0.0 1.0 -1 ------- null}
r -t 0.8248 -s 1 -d 0 -p ack -e 40 -c 0 -i 29 -a 0 -x {1.0 0.0 14 ------- null}
+ -t 0.8248 -s 0 -d 1 -p tcp -e 1040 -c 0 -i 44 -a 0 -x {0.0 1.0 29 ------- null}
+ -t 0.8248 -s 0 -d 1 -p tcp -e 1040 -c 0 -i 45 -a 0 -x {0.0 1.0 30 ------- null}
- -t 0.83312 -s 0 -d 1 -p tcp -e 1040 -c 0 -i 38 -a 0 -x {0.0 1.0 23 ------- null}
h -t 0.83312 -s 0 -d 1 -p tcp -e 1040 -c 0 -i 38 -a 0 -x {0.0 1.0 -1 ------- null}
- -t 0.84144 -s 0 -d 1 -p tcp -e 1040 -c 0 -i 39 -a 0 -x {0.0 1.0 24 ------- null}
h -t 0.84144 -s 0 -d 1 -p tcp -e 1040 -c 0 -i 39 -a 0 -x {0.0 1.0 -1 ------- null}
- -t 0.84976 -s 0 -d 1 -p tcp -e 1040 -c 0 -i 40 -a 0 -x {0.0 1.0 25 ------- null}
h -t 0.84976 -s 0 -d 1 -p tcp -e 1040 -c 0 -i 40 -a 0 -x {0.0 1.0 -1 ------- null}
r -t 0.85488 -s 0 -d 1 -p tcp -e 1040 -c 0 -i 30 -a 0 -x {0.0 1.0 15 ------- null}
+ -t 0.85488 -s 1 -d 0 -p ack -e 40 -c 0 -i 46 -a 0 -x {1.0 0.0 15 ------- null}
- -t 0.85488 -s 1 -d 0 -p ack -e 40 -c 0 -i 46 -a 0 -x {1.0 0.0 15 ------- null}
h -t 0.85488 -s 1 -d 0 -p ack -e 40 -c 0 -i 46 -a 0 -x {1.0 0.0 -1 ------- null}
- -t 0.85808 -s 0 -d 1 -p tcp -e 1040 -c 0 -i 41 -a 0 -x {0.0 1.0 26 ------- null}
h -t 0.85808 -s 0 -d 1 -p tcp -e 1040 -c 0 -i 41 -a 0 -x {0.0 1.0 -1 ------- null}
r -t 0.8632 -s 0 -d 1 -p tcp -e 1040 -c 0 -i 31 -a 0 -x {0.0 1.0 16 ------- null}
+ -t 0.8632 -s 1 -d 0 -p ack -e 40 -c 0 -i 47 -a 0 -x {1.0 0.0 16 ------- null}
- -t 0.8632 -s 1 -d 0 -p ack -e 40 -c 0 -i 47 -a 0 -x {1.0 0.0 16 ------- null}
h -t 0.8632 -s 1 -d 0 -p ack -e 40 -c 0 -i 47 -a 0 -x {1.0 0.0 -1 ------- null}
- -t 0.8664 -s 0 -d 1 -p tcp -e 1040 -c 0 -i 42 -a 0 -x {0.0 1.0 27 ------- null}
h -t 0.8664 -s 0 -d 1 -p tcp -e 1040 -c 0 -i 42 -a 0 -x {0.0 1.0 -1 ------- null}
r -t 0.87152 -s 0 -d 1 -p tcp -e 1040 -c 0 -i 32 -a 0 -x {0.0 1.0 17 ------- null}
+ -t 0.87152 -s 1 -d 0 -p ack -e 40 -c 0 -i 48 -a 0 -x {1.0 0.0 17 ------- null}
- -t 0.87152 -s 1 -d 0 -p ack -e 40 -c 0 -i 48 -a 0 -x {1.0 0.0 17 ------- null}
h -t 0.87152 -s 1 -d 0 -p ack -e 40 -c 0 -i 48 -a 0 -x {1.0 0.0 -1 ------- null}
- -t 0.87472 -s 0 -d 1 -p tcp -e 1040 -c 0 -i 43 -a 0 -x {0.0 1.0 28 ------- null}
h -t 0.87472 -s 0 -d 1 -p tcp -e 1040 -c 0 -i 43 -a 0 -x {0.0 1.0 -1 ------- null}
r -t 0.87984 -s 0 -d 1 -p tcp -e 1040 -c 0 -i 33 -a 0 -x {0.0 1.0 18 ------- null}
+ -t 0.87984 -s 1 -d 0 -p ack -e 40 -c 0 -i 49 -a 0 -x {1.0 0.0 18 ------- null}
- -t 0.87984 -s 1 -d 0 -p ack -e 40 -c 0 -i 49 -a 0 -x {1.0 0.0 18 ------- null}
h -t 0.87984 -s 1 -d 0 -p ack -e 40 -c 0 -i 49 -a 0 -x {1.0 0.0 -1 ------- null}
- -t 0.88304 -s 0 -d 1 -p tcp -e 1040 -c 0 -i 44 -a 0 -x {0.0 1.0 29 ------- null}
h -t 0.88304 -s 0 -d 1 -p tcp -e 1040 -c 0 -i 44 -a 0 -x {0.0 1.0 -1 ------- null}
r -t 0.88816 -s 0 -d 1 -p tcp -e 1040 -c 0 -i 34 -a 0 -x {0.0 1.0 19 ------- null}
+ -t 0.88816 -s 1 -d 0 -p ack -e 40 -c 0 -i 50 -a 0 -x {1.0 0.0 19 ------- null}
- -t 0.88816 -s 1 -d 0 -p ack -e 40 -c 0 -i 50 -a 0 -x {1.0 0.0 19 ------- null}
h -t 0.88816 -s 1 -d 0 -p ack -e 40 -c 0 -i 50 -a 0 -x {1.0 0.0 -1 ------- null}
- -t 0.89136 -s 0 -d 1 -p tcp -e 1040 -c 0 -i 45 -a 0 -x {0.0 1.0 30 ------- null}
h -t 0.89136 -s 0 -d 1 -p tcp -e 1040 -c 0 -i 45 -a 0 -x {0.0 1.0 -1 ------- null}
r -t 0.89648 -s 0 -d 1 -p tcp -e 1040 -c 0 -i 35 -a 0 -x {0.0 1.0 20 ------- null}
+ -t 0.89648 -s 1 -d 0 -p ack -e 40 -c 0 -i 51 -a 0 -x {1.0 0.0 20 ------- null}
- -t 0.89648 -s 1 -d 0 -p ack -e 40 -c 0 -i 51 -a 0 -x {1.0 0.0 20 ------- null}
h -t 0.89648 -s 1 -d 0 -p ack -e 40 -c 0 -i 51 -a 0 -x {1.0 0.0 -1 ------- null}
r -t 0.9048 -s 0 -d 1 -p tcp -e 1040 -c 0 -i 36 -a 0 -x {0.0 1.0 21 ------- null}
+ -t 0.9048 -s 1 -d 0 -p ack -e 40 -c 0 -i 52 -a 0 -x {1.0 0.0 21 ------- null}
- -t 0.9048 -s 1 -d 0 -p ack -e 40 -c 0 -i 52 -a 0 -x {1.0 0.0 21 ------- null}
h -t 0.9048 -s 1 -d 0 -p ack -e 40 -c 0 -i 52 -a 0 -x {1.0 0.0 -1 ------- null}
r -t 0.91312 -s 0 -d 1 -p tcp -e 1040 -c 0 -i 37 -a 0 -x {0.0 1.0 22 ------- null}
+ -t 0.91312 -s 1 -d 0 -p ack -e 40 -c 0 -i 53 -a 0 -x {1.0 0.0 22 ------- null}
- -t 0.91312 -s 1 -d 0 -p ack -e 40 -c 0 -i 53 -a 0 -x {1.0 0.0 22 ------- null}
h -t 0.91312 -s 1 -d 0 -p ack -e 40 -c 0 -i 53 -a 0 -x {1.0 0.0 -1 ------- null}
r -t 0.92144 -s 0 -d 1 -p tcp -e 1040 -c 0 -i 38 -a 0 -x {0.0 1.0 23 ------- null}
+ -t 0.92144 -s 1 -d 0 -p ack -e 40 -c 0 -i 54 -a 0 -x {1.0 0.0 23 ------- null}
- -t 0.92144 -s 1 -d 0 -p ack -e 40 -c 0 -i 54 -a 0 -x {1.0 0.0 23 ------- null}
h -t 0.92144 -s 1 -d 0 -p ack -e 40 -c 0 -i 54 -a 0 -x {1.0 0.0 -1 ------- null}
r -t 0.92976 -s 0 -d 1 -p tcp -e 1040 -c 0 -i 39 -a 0 -x {0.0 1.0 24 ------- null}
+ -t 0.92976 -s 1 -d 0 -p ack -e 40 -c 0 -i 55 -a 0 -x {1.0 0.0 24 ------- null}
- -t 0.92976 -s 1 -d 0 -p ack -e 40 -c 0 -i 55 -a 0 -x {1.0 0.0 24 ------- null}
h -t 0.92976 -s 1 -d 0 -p ack -e 40 -c 0 -i 55 -a 0 -x {1.0 0.0 -1 ------- null}
r -t 0.9352 -s 1 -d 0 -p ack -e 40 -c 0 -i 46 -a 0 -x {1.0 0.0 15 ------- null}
+ -t 0.9352 -s 0 -d 1 -p tcp -e 1040 -c 0 -i 56 -a 0 -x {0.0 1.0 31 ------- null}
- -t 0.9352 -s 0 -d 1 -p tcp -e 1040 -c 0 -i 56 -a 0 -x {0.0 1.0 31 ------- null}
h -t 0.9352 -s 0 -d 1 -p tcp -e 1040 -c 0 -i 56 -a 0 -x {0.0 1.0 -1 ------- null}
+ -t 0.9352 -s 0 -d 1 -p tcp -e 1040 -c 0 -i 57 -a 0 -x {0.0 1.0 32 ------- null}
r -t 0.93808 -s 0 -d 1 -p tcp -e 1040 -c 0 -i 40 -a 0 -x {0.0 1.0 25 ------- null}
+ -t 0.93808 -s 1 -d 0 -p ack -e 40 -c 0 -i 58 -a 0 -x {1.0 0.0 25 ------- null}
- -t 0.93808 -s 1 -d 0 -p ack -e 40 -c 0 -i 58 -a 0 -x {1.0 0.0 25 ------- null}
h -t 0.93808 -s 1 -d 0 -p ack -e 40 -c 0 -i 58 -a 0 -x {1.0 0.0 -1 ------- null}
- -t 0.94352 -s 0 -d 1 -p tcp -e 1040 -c 0 -i 57 -a 0 -x {0.0 1.0 32 ------- null}
h -t 0.94352 -s 0 -d 1 -p tcp -e 1040 -c 0 -i 57 -a 0 -x {0.0 1.0 -1 ------- null}
r -t 0.94352 -s 1 -d 0 -p ack -e 40 -c 0 -i 47 -a 0 -x {1.0 0.0 16 ------- null}
+ -t 0.94352 -s 0 -d 1 -p tcp -e 1040 -c 0 -i 59 -a 0 -x {0.0 1.0 33 ------- null}
+ -t 0.94352 -s 0 -d 1 -p tcp -e 1040 -c 0 -i 60 -a 0 -x {0.0 1.0 34 ------- null}
r -t 0.9464 -s 0 -d 1 -p tcp -e 1040 -c 0 -i 41 -a 0 -x {0.0 1.0 26 ------- null}
+ -t 0.9464 -s 1 -d 0 -p ack -e 40 -c 0 -i 61 -a 0 -x {1.0 0.0 26 ------- null}
- -t 0.9464 -s 1 -d 0 -p ack -e 40 -c 0 -i 61 -a 0 -x {1.0 0.0 26 ------- null}
h -t 0.9464 -s 1 -d 0 -p ack -e 40 -c 0 -i 61 -a 0 -x {1.0 0.0 -1 ------- null}
r -t 0.95184 -s 1 -d 0 -p ack -e 40 -c 0 -i 48 -a 0 -x {1.0 0.0 17 ------- null}
+ -t 0.95184 -s 0 -d 1 -p tcp -e 1040 -c 0 -i 62 -a 0 -x {0.0 1.0 35 ------- null}
+ -t 0.95184 -s 0 -d 1 -p tcp -e 1040 -c 0 -i 63 -a 0 -x {0.0 1.0 36 ------- null}
- -t 0.95184 -s 0 -d 1 -p tcp -e 1040 -c 0 -i 59 -a 0 -x {0.0 1.0 33 ------- null}
h -t 0.95184 -s 0 -d 1 -p tcp -e 1040 -c 0 -i 59 -a 0 -x {0.0 1.0 -1 ------- null}
r -t 0.95472 -s 0 -d 1 -p tcp -e 1040 -c 0 -i 42 -a 0 -x {0.0 1.0 27 ------- null}
+ -t 0.95472 -s 1 -d 0 -p ack -e 40 -c 0 -i 64 -a 0 -x {1.0 0.0 27 ------- null}
- -t 0.95472 -s 1 -d 0 -p ack -e 40 -c 0 -i 64 -a 0 -x {1.0 0.0 27 ------- null}
h -t 0.95472 -s 1 -d 0 -p ack -e 40 -c 0 -i 64 -a 0 -x {1.0 0.0 -1 ------- null}
- -t 0.96016 -s 0 -d 1 -p tcp -e 1040 -c 0 -i 60 -a 0 -x {0.0 1.0 34 ------- null}
h -t 0.96016 -s 0 -d 1 -p tcp -e 1040 -c 0 -i 60 -a 0 -x {0.0 1.0 -1 ------- null}
r -t 0.96016 -s 1 -d 0 -p ack -e 40 -c 0 -i 49 -a 0 -x {1.0 0.0 18 ------- null}
+ -t 0.96016 -s 0 -d 1 -p tcp -e 1040 -c 0 -i 65 -a 0 -x {0.0 1.0 37 ------- null}
+ -t 0.96016 -s 0 -d 1 -p tcp -e 1040 -c 0 -i 66 -a 0 -x {0.0 1.0 38 ------- null}
r -t 0.96304 -s 0 -d 1 -p tcp -e 1040 -c 0 -i 43 -a 0 -x {0.0 1.0 28 ------- null}
+ -t 0.96304 -s 1 -d 0 -p ack -e 40 -c 0 -i 67 -a 0 -x {1.0 0.0 28 ------- null}
- -t 0.96304 -s 1 -d 0 -p ack -e 40 -c 0 -i 67 -a 0 -x {1.0 0.0 28 ------- null}
h -t 0.96304 -s 1 -d 0 -p ack -e 40 -c 0 -i 67 -a 0 -x {1.0 0.0 -1 ------- null}
r -t 0.96848 -s 1 -d 0 -p ack -e 40 -c 0 -i 50 -a 0 -x {1.0 0.0 19 ------- null}
+ -t 0.96848 -s 0 -d 1 -p tcp -e 1040 -c 0 -i 68 -a 0 -x {0.0 1.0 39 ------- null}
- -t 0.96848 -s 0 -d 1 -p tcp -e 1040 -c 0 -i 62 -a 0 -x {0.0 1.0 35 ------- null}
h -t 0.96848 -s 0 -d 1 -p tcp -e 1040 -c 0 -i 62 -a 0 -x {0.0 1.0 -1 ------- null}
r -t 0.97136 -s 0 -d 1 -p tcp -e 1040 -c 0 -i 44 -a 0 -x {0.0 1.0 29 ------- null}
+ -t 0.97136 -s 1 -d 0 -p ack -e 40 -c 0 -i 69 -a 0 -x {1.0 0.0 29 ------- null}
- -t 0.97136 -s 1 -d 0 -p ack -e 40 -c 0 -i 69 -a 0 -x {1.0 0.0 29 ------- null}
h -t 0.97136 -s 1 -d 0 -p ack -e 40 -c 0 -i 69 -a 0 -x {1.0 0.0 -1 ------- null}
- -t 0.9768 -s 0 -d 1 -p tcp -e 1040 -c 0 -i 63 -a 0 -x {0.0 1.0 36 ------- null}
h -t 0.9768 -s 0 -d 1 -p tcp -e 1040 -c 0 -i 63 -a 0 -x {0.0 1.0 -1 ------- null}
r -t 0.9768 -s 1 -d 0 -p ack -e 40 -c 0 -i 51 -a 0 -x {1.0 0.0 20 ------- null}
+ -t 0.9768 -s 0 -d 1 -p tcp -e 1040 -c 0 -i 70 -a 0 -x {0.0 1.0 40 ------- null}
r -t 0.97968 -s 0 -d 1 -p tcp -e 1040 -c 0 -i 45 -a 0 -x {0.0 1.0 30 ------- null}
+ -t 0.97968 -s 1 -d 0 -p ack -e 40 -c 0 -i 71 -a 0 -x {1.0 0.0 30 ------- null}
- -t 0.97968 -s 1 -d 0 -p ack -e 40 -c 0 -i 71 -a 0 -x {1.0 0.0 30 ------- null}
h -t 0.97968 -s 1 -d 0 -p ack -e 40 -c 0 -i 71 -a 0 -x {1.0 0.0 -1 ------- null}
r -t 0.98512 -s 1 -d 0 -p ack -e 40 -c 0 -i 52 -a 0 -x {1.0 0.0 21 ------- null}
+ -t 0.98512 -s 0 -d 1 -p tcp -e 1040 -c 0 -i 72 -a 0 -x {0.0 1.0 41 ------- null}
- -t 0.98512 -s 0 -d 1 -p tcp -e 1040 -c 0 -i 65 -a 0 -x {0.0 1.0 37 ------- null}
h -t 0.98512 -s 0 -d 1 -p tcp -e 1040 -c 0 -i 65 -a 0 -x {0.0 1.0 -1 ------- null}
- -t 0.99344 -s 0 -d 1 -p tcp -e 1040 -c 0 -i 66 -a 0 -x {0.0 1.0 38 ------- null}
h -t 0.99344 -s 0 -d 1 -p tcp -e 1040 -c 0 -i 66 -a 0 -x {0.0 1.0 -1 ------- null}
r -t 0.99344 -s 1 -d 0 -p ack -e 40 -c 0 -i 53 -a 0 -x {1.0 0.0 22 ------- null}
+ -t 0.99344 -s 0 -d 1 -p tcp -e 1040 -c 0 -i 73 -a 0 -x {0.0 1.0 42 ------- null}
r -t 1.00176 -s 1 -d 0 -p ack -e 40 -c 0 -i 54 -a 0 -x {1.0 0.0 23 ------- null}
+ -t 1.00176 -s 0 -d 1 -p tcp -e 1040 -c 0 -i 74 -a 0 -x {0.0 1.0 43 ------- null}
- -t 1.00176 -s 0 -d 1 -p tcp -e 1040 -c 0 -i 68 -a 0 -x {0.0 1.0 39 ------- null}
h -t 1.00176 -s 0 -d 1 -p tcp -e 1040 -c 0 -i 68 -a 0 -x {0.0 1.0 -1 ------- null}
r -t 1.01008 -s 1 -d 0 -p ack -e 40 -c 0 -i 55 -a 0 -x {1.0 0.0 24 ------- null}
+ -t 1.01008 -s 0 -d 1 -p tcp -e 1040 -c 0 -i 75 -a 0 -x {0.0 1.0 44 ------- null}
- -t 1.01008 -s 0 -d 1 -p tcp -e 1040 -c 0 -i 70 -a 0 -x {0.0 1.0 40 ------- null}
h -t 1.01008 -s 0 -d 1 -p tcp -e 1040 -c 0 -i 70 -a 0 -x {0.0 1.0 -1 ------- null}
r -t 1.0184 -s 1 -d 0 -p ack -e 40 -c 0 -i 58 -a 0 -x {1.0 0.0 25 ------- null}
+ -t 1.0184 -s 0 -d 1 -p tcp -e 1040 -c 0 -i 76 -a 0 -x {0.0 1.0 45 ------- null}
- -t 1.0184 -s 0 -d 1 -p tcp -e 1040 -c 0 -i 72 -a 0 -x {0.0 1.0 41 ------- null}
h -t 1.0184 -s 0 -d 1 -p tcp -e 1040 -c 0 -i 72 -a 0 -x {0.0 1.0 -1 ------- null}
r -t 1.02352 -s 0 -d 1 -p tcp -e 1040 -c 0 -i 56 -a 0 -x {0.0 1.0 31 ------- null}
+ -t 1.02352 -s 1 -d 0 -p ack -e 40 -c 0 -i 77 -a 0 -x {1.0 0.0 31 ------- null}
- -t 1.02352 -s 1 -d 0 -p ack -e 40 -c 0 -i 77 -a 0 -x {1.0 0.0 31 ------- null}
h -t 1.02352 -s 1 -d 0 -p ack -e 40 -c 0 -i 77 -a 0 -x {1.0 0.0 -1 ------- null}
r -t 1.02672 -s 1 -d 0 -p ack -e 40 -c 0 -i 61 -a 0 -x {1.0 0.0 26 ------- null}
+ -t 1.02672 -s 0 -d 1 -p tcp -e 1040 -c 0 -i 78 -a 0 -x {0.0 1.0 46 ------- null}
- -t 1.02672 -s 0 -d 1 -p tcp -e 1040 -c 0 -i 73 -a 0 -x {0.0 1.0 42 ------- null}
h -t 1.02672 -s 0 -d 1 -p tcp -e 1040 -c 0 -i 73 -a 0 -x {0.0 1.0 -1 ------- null}
r -t 1.03184 -s 0 -d 1 -p tcp -e 1040 -c 0 -i 57 -a 0 -x {0.0 1.0 32 ------- null}
+ -t 1.03184 -s 1 -d 0 -p ack -e 40 -c 0 -i 79 -a 0 -x {1.0 0.0 32 ------- null}
- -t 1.03184 -s 1 -d 0 -p ack -e 40 -c 0 -i 79 -a 0 -x {1.0 0.0 32 ------- null}
h -t 1.03184 -s 1 -d 0 -p ack -e 40 -c 0 -i 79 -a 0 -x {1.0 0.0 -1 ------- null}
r -t 1.03504 -s 1 -d 0 -p ack -e 40 -c 0 -i 64 -a 0 -x {1.0 0.0 27 ------- null}
+ -t 1.03504 -s 0 -d 1 -p tcp -e 1040 -c 0 -i 80 -a 0 -x {0.0 1.0 47 ------- null}
- -t 1.03504 -s 0 -d 1 -p tcp -e 1040 -c 0 -i 74 -a 0 -x {0.0 1.0 43 ------- null}
h -t 1.03504 -s 0 -d 1 -p tcp -e 1040 -c 0 -i 74 -a 0 -x {0.0 1.0 -1 ------- null}
r -t 1.04016 -s 0 -d 1 -p tcp -e 1040 -c 0 -i 59 -a 0 -x {0.0 1.0 33 ------- null}
+ -t 1.04016 -s 1 -d 0 -p ack -e 40 -c 0 -i 81 -a 0 -x {1.0 0.0 33 ------- null}
- -t 1.04016 -s 1 -d 0 -p ack -e 40 -c 0 -i 81 -a 0 -x {1.0 0.0 33 ------- null}
h -t 1.04016 -s 1 -d 0 -p ack -e 40 -c 0 -i 81 -a 0 -x {1.0 0.0 -1 ------- null}
r -t 1.04336 -s 1 -d 0 -p ack -e 40 -c 0 -i 67 -a 0 -x {1.0 0.0 28 ------- null}
+ -t 1.04336 -s 0 -d 1 -p tcp -e 1040 -c 0 -i 82 -a 0 -x {0.0 1.0 48 ------- null}
- -t 1.04336 -s 0 -d 1 -p tcp -e 1040 -c 0 -i 75 -a 0 -x {0.0 1.0 44 ------- null}
h -t 1.04336 -s 0 -d 1 -p tcp -e 1040 -c 0 -i 75 -a 0 -x {0.0 1.0 -1 ------- null}
r -t 1.04848 -s 0 -d 1 -p tcp -e 1040 -c 0 -i 60 -a 0 -x {0.0 1.0 34 ------- null}
+ -t 1.04848 -s 1 -d 0 -p ack -e 40 -c 0 -i 83 -a 0 -x {1.0 0.0 34 ------- null}
- -t 1.04848 -s 1 -d 0 -p ack -e 40 -c 0 -i 83 -a 0 -x {1.0 0.0 34 ------- null}
h -t 1.04848 -s 1 -d 0 -p ack -e 40 -c 0 -i 83 -a 0 -x {1.0 0.0 -1 ------- null}
r -t 1.05168 -s 1 -d 0 -p ack -e 40 -c 0 -i 69 -a 0 -x {1.0 0.0 29 ------- null}
+ -t 1.05168 -s 0 -d 1 -p tcp -e 1040 -c 0 -i 84 -a 0 -x {0.0 1.0 49 ------- null}
- -t 1.05168 -s 0 -d 1 -p tcp -e 1040 -c 0 -i 76 -a 0 -x {0.0 1.0 45 ------- null}
h -t 1.05168 -s 0 -d 1 -p tcp -e 1040 -c 0 -i 76 -a 0 -x {0.0 1.0 -1 ------- null}
r -t 1.0568 -s 0 -d 1 -p tcp -e 1040 -c 0 -i 62 -a 0 -x {0.0 1.0 35 ------- null}
+ -t 1.0568 -s 1 -d 0 -p ack -e 40 -c 0 -i 85 -a 0 -x {1.0 0.0 35 ------- null}
- -t 1.0568 -s 1 -d 0 -p ack -e 40 -c 0 -i 85 -a 0 -x {1.0 0.0 35 ------- null}
h -t 1.0568 -s 1 -d 0 -p ack -e 40 -c 0 -i 85 -a 0 -x {1.0 0.0 -1 ------- null}
r -t 1.06 -s 1 -d 0 -p ack -e 40 -c 0 -i 71 -a 0 -x {1.0 0.0 30 ------- null}
+ -t 1.06 -s 0 -d 1 -p tcp -e 1040 -c 0 -i 86 -a 0 -x {0.0 1.0 50 ------- null}
- -t 1.06 -s 0 -d 1 -p tcp -e 1040 -c 0 -i 78 -a 0 -x {0.0 1.0 46 ------- null}
h -t 1.06 -s 0 -d 1 -p tcp -e 1040 -c 0 -i 78 -a 0 -x {0.0 1.0 -1 ------- null}
r -t 1.06512 -s 0 -d 1 -p tcp -e 1040 -c 0 -i 63 -a 0 -x {0.0 1.0 36 ------- null}
+ -t 1.06512 -s 1 -d 0 -p ack -e 40 -c 0 -i 87 -a 0 -x {1.0 0.0 36 ------- null}
- -t 1.06512 -s 1 -d 0 -p ack -e 40 -c 0 -i 87 -a 0 -x {1.0 0.0 36 ------- null}
h -t 1.06512 -s 1 -d 0 -p ack -e 40 -c 0 -i 87 -a 0 -x {1.0 0.0 -1 ------- null}
- -t 1.06832 -s 0 -d 1 -p tcp -e 1040 -c 0 -i 80 -a 0 -x {0.0 1.0 47 ------- null}
h -t 1.06832 -s 0 -d 1 -p tcp -e 1040 -c 0 -i 80 -a 0 -x {0.0 1.0 -1 ------- null}
r -t 1.07344 -s 0 -d 1 -p tcp -e 1040 -c 0 -i 65 -a 0 -x {0.0 1.0 37 ------- null}
+ -t 1.07344 -s 1 -d 0 -p ack -e 40 -c 0 -i 88 -a 0 -x {1.0 0.0 37 ------- null}
- -t 1.07344 -s 1 -d 0 -p ack -e 40 -c 0 -i 88 -a 0 -x {1.0 0.0 37 ------- null}
h -t 1.07344 -s 1 -d 0 -p ack -e 40 -c 0 -i 88 -a 0 -x {1.0 0.0 -1 ------- null}
- -t 1.07664 -s 0 -d 1 -p tcp -e 1040 -c 0 -i 82 -a 0 -x {0.0 1.0 48 ------- null}
h -t 1.07664 -s 0 -d 1 -p tcp -e 1040 -c 0 -i 82 -a 0 -x {0.0 1.0 -1 ------- null}
r -t 1.08176 -s 0 -d 1 -p tcp -e 1040 -c 0 -i 66 -a 0 -x {0.0 1.0 38 ------- null}
+ -t 1.08176 -s 1 -d 0 -p ack -e 40 -c 0 -i 89 -a 0 -x {1.0 0.0 38 ------- null}
- -t 1.08176 -s 1 -d 0 -p ack -e 40 -c 0 -i 89 -a 0 -x {1.0 0.0 38 ------- null}
h -t 1.08176 -s 1 -d 0 -p ack -e 40 -c 0 -i 89 -a 0 -x {1.0 0.0 -1 ------- null}
- -t 1.08496 -s 0 -d 1 -p tcp -e 1040 -c 0 -i 84 -a 0 -x {0.0 1.0 49 ------- null}
h -t 1.08496 -s 0 -d 1 -p tcp -e 1040 -c 0 -i 84 -a 0 -x {0.0 1.0 -1 ------- null}
r -t 1.09008 -s 0 -d 1 -p tcp -e 1040 -c 0 -i 68 -a 0 -x {0.0 1.0 39 ------- null}
+ -t 1.09008 -s 1 -d 0 -p ack -e 40 -c 0 -i 90 -a 0 -x {1.0 0.0 39 ------- null}
- -t 1.09008 -s 1 -d 0 -p ack -e 40 -c 0 -i 90 -a 0 -x {1.0 0.0 39 ------- null}
h -t 1.09008 -s 1 -d 0 -p ack -e 40 -c 0 -i 90 -a 0 -x {1.0 0.0 -1 ------- null}
- -t 1.09328 -s 0 -d 1 -p tcp -e 1040 -c 0 -i 86 -a 0 -x {0.0 1.0 50 ------- null}
h -t 1.09328 -s 0 -d 1 -p tcp -e 1040 -c 0 -i 86 -a 0 -x {0.0 1.0 -1 ------- null}
r -t 1.0984 -s 0 -d 1 -p tcp -e 1040 -c 0 -i 70 -a 0 -x {0.0 1.0 40 ------- null}
+ -t 1.0984 -s 1 -d 0 -p ack -e 40 -c 0 -i 91 -a 0 -x {1.0 0.0 40 ------- null}
- -t 1.0984 -s 1 -d 0 -p ack -e 40 -c 0 -i 91 -a 0 -x {1.0 0.0 40 ------- null}
h -t 1.0984 -s 1 -d 0 -p ack -e 40 -c 0 -i 91 -a 0 -x {1.0 0.0 -1 ------- null}
r -t 1.10384 -s 1 -d 0 -p ack -e 40 -c 0 -i 77 -a 0 -x {1.0 0.0 31 ------- null}
+ -t 1.10384 -s 0 -d 1 -p tcp -e 1040 -c 0 -i 92 -a 0 -x {0.0 1.0 51 ------- null}
- -t 1.10384 -s 0 -d 1 -p tcp -e 1040 -c 0 -i 92 -a 0 -x {0.0 1.0 51 ------- null}
h -t 1.10384 -s 0 -d 1 -p tcp -e 1040 -c 0 -i 92 -a 0 -x {0.0 1.0 -1 ------- null}
r -t 1.10672 -s 0 -d 1 -p tcp -e 1040 -c 0 -i 72 -a 0 -x {0.0 1.0 41 ------- null}
+ -t 1.10672 -s 1 -d 0 -p ack -e 40 -c 0 -i 93 -a 0 -x {1.0 0.0 41 ------- null}
- -t 1.10672 -s 1 -d 0 -p ack -e 40 -c 0 -i 93 -a 0 -x {1.0 0.0 41 ------- null}
h -t 1.10672 -s 1 -d 0 -p ack -e 40 -c 0 -i 93 -a 0 -x {1.0 0.0 -1 ------- null}
r -t 1.11216 -s 1 -d 0 -p ack -e 40 -c 0 -i 79 -a 0 -x {1.0 0.0 32 ------- null}
+ -t 1.11216 -s 0 -d 1 -p tcp -e 1040 -c 0 -i 94 -a 0 -x {0.0 1.0 52 ------- null}
- -t 1.11216 -s 0 -d 1 -p tcp -e 1040 -c 0 -i 94 -a 0 -x {0.0 1.0 52 ------- null}
h -t 1.11216 -s 0 -d 1 -p tcp -e 1040 -c 0 -i 94 -a 0 -x {0.0 1.0 -1 ------- null}
r -t 1.11504 -s 0 -d 1 -p tcp -e 1040 -c 0 -i 73 -a 0 -x {0.0 1.0 42 ------- null}
+ -t 1.11504 -s 1 -d 0 -p ack -e 40 -c 0 -i 95 -a 0 -x {1.0 0.0 42 ------- null}
- -t 1.11504 -s 1 -d 0 -p ack -e 40 -c 0 -i 95 -a 0 -x {1.0 0.0 42 ------- null}
h -t 1.11504 -s 1 -d 0 -p ack -e 40 -c 0 -i 95 -a 0 -x {1.0 0.0 -1 ------- null}