+ 0.1 0 2 tcp 40 ------- 1 0.0 4.0 0 0
- 0.1 0 2 tcp 40 ------- 1 0.0 4.0 0 0
+ 0.1 1 2 cbr 210 ------- 2 1.0 5.0 0 1
- 0.1 1 2 cbr 210 ------- 2 1.0 5.0 0 1
+ 0.10375 1 2 cbr 210 ------- 2 1.0 5.0 1 2
- 0.10375 1 2 cbr 210 ------- 2 1.0 5.0 1 2
r 0.10416 0 2 tcp 40 ------- 1 0.0 4.0 0 0
+ 0.10416 2 3 tcp 40 ------- 1 0.0 4.0 0 0
- 0.10416 2 3 tcp 40 ------- 1 0.0 4.0 0 0
r 0.10484 1 2 cbr 210 ------- 2 1.0 5.0 0 1
+ 0.10484 2 3 cbr 210 ------- 2 1.0 5.0 0 1
- 0.10484 2 3 cbr 210 ------- 2 1.0 5.0 0 1
+ 0.1075 1 2 cbr 210 ------- 2 1.0 5.0 2 3
- 0.1075 1 2 cbr 210 ------- 2 1.0 5.0 2 3
r 0.10832 2 3 tcp 40 ------- 1 0.0 4.0 0 0
h 0.10832 3 6 tcp 40 ------- 1 0.0 4.0 0 0
r 0.10859 1 2 cbr 210 ------- 2 1.0 5.0 1 2
+ 0.10859 2 3 cbr 210 ------- 2 1.0 5.0 1 2
- 0.10859 2 3 cbr 210 ------- 2 1.0 5.0 1 2
r 0.10968 2 3 cbr 210 ------- 2 1.0 5.0 0 1
h 0.10968 3 6 cbr 210 ------- 2 1.0 5.0 0 1
+ 0.11125 1 2 cbr 210 ------- 2 1.0 5.0 3 4
- 0.11125 1 2 cbr 210 ------- 2 1.0 5.0 3 4
r 0.11234 1 2 cbr 210 ------- 2 1.0 5.0 2 3
+ 0.11234 2 3 cbr 210 ------- 2 1.0 5.0 2 3
- 0.11234 2 3 cbr 210 ------- 2 1.0 5.0 2 3
r 0.11343 2 3 cbr 210 ------- 2 1.0 5.0 1 2
h 0.11343 3 6 cbr 210 ------- 2 1.0 5.0 1 2
+ 0.115 1 2 cbr 210 ------- 2 1.0 5.0 4 5
- 0.115 1 2 cbr 210 ------- 2 1.0 5.0 4 5
r 0.11609 1 2 cbr 210 ------- 2 1.0 5.0 3 4
+ 0.11609 2 3 cbr 210 ------- 2 1.0 5.0 3 4
- 0.11609 2 3 cbr 210 ------- 2 1.0 5.0 3 4
r 0.11718 2 3 cbr 210 ------- 2 1.0 5.0 2 3
h 0.11718 3 6 cbr 210 ------- 2 1.0 5.0 2 3
+ 0.11875 1 2 cbr 210 ------- 2 1.0 5.0 5 6
- 0.11875 1 2 cbr 210 ------- 2 1.0 5.0 5 6
r 0.11984 1 2 cbr 210 ------- 2 1.0 5.0 4 5
+ 0.11984 2 3 cbr 210 ------- 2 1.0 5.0 4 5
- 0.11984 2 3 cbr 210 ------- 2 1.0 5.0 4 5
r 0.12093 2 3 cbr 210 ------- 2 1.0 5.0 3 4
h 0.12093 3 6 cbr 210 ------- 2 1.0 5.0 3 4
+ 0.1225 1 2 cbr 210 ------- 2 1.0 5.0 6 7
- 0.1225 1 2 cbr 210 ------- 2 1.0 5.0 6 7
r 0.12359 1 2 cbr 210 ------- 2 1.0 5.0 5 6
+ 0.12359 2 3 cbr 210 ------- 2 1.0 5.0 5 6
- 0.12359 2 3 cbr 210 ------- 2 1.0 5.0 5 6
r 0.12468 2 3 cbr 210 ------- 2 1.0 5.0 4 5
h 0.12468 3 6 cbr 210 ------- 2 1.0 5.0 4 5
+ 0.12625 1 2 cbr 210 ------- 2 1.0 5.0 7 8
- 0.12625 1 2 cbr 210 ------- 2 1.0 5.0 7 8
r 0.12734 1 2 cbr 210 ------- 2 1.0 5.0 6 7
+ 0.12734 2 3 cbr 210 ------- 2 1.0 5.0 6 7
- 0.12734 2 3 cbr 210 ------- 2 1.0 5.0 6 7
r 0.12843 2 3 cbr 210 ------- 2 1.0 5.0 5 6
h 0.12843 3 6 cbr 210 ------- 2 1.0 5.0 5 6
+ 0.13 1 2 cbr 210 ------- 2 1.0 5.0 8 9
- 0.13 1 2 cbr 210 ------- 2 1.0 5.0 8 9
r 0.13109 1 2 cbr 210 ------- 2 1.0 5.0 7 8
+ 0.13109 2 3 cbr 210 ------- 2 1.0 5.0 7 8
- 0.13109 2 3 cbr 210 ------- 2 1.0 5.0 7 8
r 0.13218 2 3 cbr 210 ------- 2 1.0 5.0 6 7
h 0.13218 3 6 cbr 210 ------- 2 1.0 5.0 6 7
+ 0.13375 1 2 cbr 210 ------- 2 1.0 5.0 9 10
- 0.13375 1 2 cbr 210 ------- 2 1.0 5.0 9 10
r 0.13484 1 2 cbr 210 ------- 2 1.0 5.0 8 9
+ 0.13484 2 3 cbr 210 ------- 2 1.0 5.0 8 9
- 0.13484 2 3 cbr 210 ------- 2 1.0 5.0 8 9
r 0.13593 2 3 cbr 210 ------- 2 1.0 5.0 7 8
h 0.13593 3 6 cbr 210 ------- 2 1.0 5.0 7 8
+ 0.1375 1 2 cbr 210 ------- 2 1.0 5.0 10 11
- 0.1375 1 2 cbr 210 ------- 2 1.0 5.0 10 11
r 0.13859 1 2 cbr 210 ------- 2 1.0 5.0 9 10
+ 0.13859 2 3 cbr 210 ------- 2 1.0 5.0 9 10
- 0.13859 2 3 cbr 210 ------- 2 1.0 5.0 9 10
r 0.13968 2 3 cbr 210 ------- 2 1.0 5.0 8 9
h 0.13968 3 6 cbr 210 ------- 2 1.0 5.0 8 9
+ 0.14125 1 2 cbr 210 ------- 2 1.0 5.0 11 12
- 0.14125 1 2 cbr 210 ------- 2 1.0 5.0 11 12
r 0.14234 1 2 cbr 210 ------- 2 1.0 5.0 10 11
+ 0.14234 2 3 cbr 210 ------- 2 1.0 5.0 10 11
- 0.14234 2 3 cbr 210 ------- 2 1.0 5.0 10 11
r 0.14343 2 3 cbr 210 ------- 2 1.0 5.0 9 10
h 0.14343 3 6 cbr 210 ------- 2 1.0 5.0 9 10
+ 0.145 1 2 cbr 210 ------- 2 1.0 5.0 12 13
- 0.145 1 2 cbr 210 ------- 2 1.0 5.0 12 13
r 0.14609 1 2 cbr 210 ------- 2 1.0 5.0 11 12
+ 0.14609 2 3 cbr 210 ------- 2 1.0 5.0 11 12
- 0.14609 2 3 cbr 210 ------- 2 1.0 5.0 11 12
r 0.14718 2 3 cbr 210 ------- 2 1.0 5.0 10 11
h 0.14718 3 6 cbr 210 ------- 2 1.0 5.0 10 11
+ 0.14832 3 6 tcp 40 ------- 1 0.0 4.0 0 0
- 0.14832 3 6 tcp 40 ------- 1 0.0 4.0 0 0
d 0.148324 5 6 tcp 40 ------- 1 0.0 4.0 0 0
+ 0.14875 1 2 cbr 210 ------- 2 1.0 5.0 13 14
- 0.14875 1 2 cbr 210 ------- 2 1.0 5.0 13 14
+ 0.14968 3 6 cbr 210 ------- 2 1.0 5.0 0 1
- 0.14968 3 6 cbr 210 ------- 2 1.0 5.0 0 1
d 0.149684 4 6 cbr 210 ------- 2 1.0 5.0 0 1
r 0.14984 1 2 cbr 210 ------- 2 1.0 5.0 12 13
+ 0.14984 2 3 cbr 210 ------- 2 1.0 5.0 12 13
- 0.14984 2 3 cbr 210 ------- 2 1.0 5.0 12 13
r 0.15093 2 3 cbr 210 ------- 2 1.0 5.0 11 12
h 0.15093 3 6 cbr 210 ------- 2 1.0 5.0 11 12
+ 0.1525 1 2 cbr 210 ------- 2 1.0 5.0 14 15
- 0.1525 1 2 cbr 210 ------- 2 1.0 5.0 14 15
+ 0.15343 3 6 cbr 210 ------- 2 1.0 5.0 1 2
- 0.15343 3 6 cbr 210 ------- 2 1.0 5.0 1 2
d 0.153434 4 6 cbr 210 ------- 2 1.0 5.0 1 2
r 0.15359 1 2 cbr 210 ------- 2 1.0 5.0 13 14
+ 0.15359 2 3 cbr 210 ------- 2 1.0 5.0 13 14
- 0.15359 2 3 cbr 210 ------- 2 1.0 5.0 13 14
r 0.15468 2 3 cbr 210 ------- 2 1.0 5.0 12 13
h 0.15468 3 6 cbr 210 ------- 2 1.0 5.0 12 13
+ 0.15625 1 2 cbr 210 ------- 2 1.0 5.0 15 16
- 0.15625 1 2 cbr 210 ------- 2 1.0 5.0 15 16
+ 0.15718 3 6 cbr 210 ------- 2 1.0 5.0 2 3
- 0.15718 3 6 cbr 210 ------- 2 1.0 5.0 2 3
d 0.157184 4 6 cbr 210 ------- 2 1.0 5.0 2 3
r 0.15734 1 2 cbr 210 ------- 2 1.0 5.0 14 15
+ 0.15734 2 3 cbr 210 ------- 2 1.0 5.0 14 15
- 0.15734 2 3 cbr 210 ------- 2 1.0 5.0 14 15
r 0.15843 2 3 cbr 210 ------- 2 1.0 5.0 13 14
h 0.15843 3 6 cbr 210 ------- 2 1.0 5.0 13 14
+ 0.16 1 2 cbr 210 ------- 2 1.0 5.0 16 17
- 0.16 1 2 cbr 210 ------- 2 1.0 5.0 16 17
+ 0.16093 3 6 cbr 210 ------- 2 1.0 5.0 3 4
- 0.16093 3 6 cbr 210 ------- 2 1.0 5.0 3 4
d 0.160934 4 6 cbr 210 ------- 2 1.0 5.0 3 4
r 0.16109 1 2 cbr 210 ------- 2 1.0 5.0 15 16
+ 0.16109 2 3 cbr 210 ------- 2 1.0 5.0 15 16
- 0.16109 2 3 cbr 210 ------- 2 1.0 5.0 15 16
r 0.16218 2 3 cbr 210 ------- 2 1.0 5.0 14 15
h 0.16218 3 6 cbr 210 ------- 2 1.0 5.0 14 15
+ 0.16375 1 2 cbr 210 ------- 2 1.0 5.0 17 18
- 0.16375 1 2 cbr 210 ------- 2 1.0 5.0 17 18
+ 0.16468 3 6 cbr 210 ------- 2 1.0 5.0 4 5
- 0.16468 3 6 cbr 210 ------- 2 1.0 5.0 4 5
d 0.164684 4 6 cbr 210 ------- 2 1.0 5.0 4 5
r 0.16484 1 2 cbr 210 ------- 2 1.0 5.0 16 17
+ 0.16484 2 3 cbr 210 ------- 2 1.0 5.0 16 17
- 0.16484 2 3 cbr 210 ------- 2 1.0 5.0 16 17
r 0.16593 2 3 cbr 210 ------- 2 1.0 5.0 15 16
h 0.16593 3 6 cbr 210 ------- 2 1.0 5.0 15 16
+ 0.1675 1 2 cbr 210 ------- 2 1.0 5.0 18 19
- 0.1675 1 2 cbr 210 ------- 2 1.0 5.0 18 19
+ 0.16843 3 6 cbr 210 ------- 2 1.0 5.0 5 6
- 0.16843 3 6 cbr 210 ------- 2 1.0 5.0 5 6
d 0.168434 4 6 cbr 210 ------- 2 1.0 5.0 5 6
r 0.16859 1 2 cbr 210 ------- 2 1.0 5.0 17 18
+ 0.16859 2 3 cbr 210 ------- 2 1.0 5.0 17 18
- 0.16859 2 3 cbr 210 ------- 2 1.0 5.0 17 18
r 0.16968 2 3 cbr 210 ------- 2 1.0 5.0 16 17
h 0.16968 3 6 cbr 210 ------- 2 1.0 5.0 16 17
+ 0.17125 1 2 cbr 210 ------- 2 1.0 5.0 19 20
- 0.17125 1 2 cbr 210 ------- 2 1.0 5.0 19 20
+ 0.17218 3 6 cbr 210 ------- 2 1.0 5.0 6 7
- 0.17218 3 6 cbr 210 ------- 2 1.0 5.0 6 7
d 0.172184 4 6 cbr 210 ------- 2 1.0 5.0 6 7
r 0.17234 1 2 cbr 210 ------- 2 1.0 5.0 18 19
+ 0.17234 2 3 cbr 210 ------- 2 1.0 5.0 18 19
- 0.17234 2 3 cbr 210 ------- 2 1.0 5.0 18 19
r 0.17343 2 3 cbr 210 ------- 2 1.0 5.0 17 18
h 0.17343 3 6 cbr 210 ------- 2 1.0 5.0 17 18
+ 0.175 1 2 cbr 210 ------- 2 1.0 5.0 20 21
- 0.175 1 2 cbr 210 ------- 2 1.0 5.0 20 21
+ 0.17593 3 6 cbr 210 ------- 2 1.0 5.0 7 8
- 0.17593 3 6 cbr 210 ------- 2 1.0 5.0 7 8
d 0.175934 4 6 cbr 210 ------- 2 1.0 5.0 7 8
r 0.17609 1 2 cbr 210 ------- 2 1.0 5.0 19 20
+ 0.17609 2 3 cbr 210 ------- 2 1.0 5.0 19 20
- 0.17609 2 3 cbr 210 ------- 2 1.0 5.0 19 20
r 0.17718 2 3 cbr 210 ------- 2 1.0 5.0 18 19
h 0.17718 3 6 cbr 210 ------- 2 1.0 5.0 18 19
+ 0.17875 1 2 cbr 210 ------- 2 1.0 5.0 21 22
- 0.17875 1 2 cbr 210 ------- 2 1.0 5.0 21 22
+ 0.17968 3 6 cbr 210 ------- 2 1.0 5.0 8 9
- 0.17968 3 6 cbr 210 ------- 2 1.0 5.0 8 9
d 0.179684 4 6 cbr 210 ------- 2 1.0 5.0 8 9
r 0.17984 1 2 cbr 210 ------- 2 1.0 5.0 20 21
+ 0.17984 2 3 cbr 210 ------- 2 1.0 5.0 20 21
- 0.17984 2 3 cbr 210 ------- 2 1.0 5.0 20 21
r 0.18093 2 3 cbr 210 ------- 2 1.0 5.0 19 20
h 0.18093 3 6 cbr 210 ------- 2 1.0 5.0 19 20
+ 0.1825 1 2 cbr 210 ------- 2 1.0 5.0 22 23
- 0.1825 1 2 cbr 210 ------- 2 1.0 5.0 22 23
+ 0.18343 3 6 cbr 210 ------- 2 1.0 5.0 9 10
- 0.18343 3 6 cbr 210 ------- 2 1.0 5.0 9 10
d 0.183434 4 6 cbr 210 ------- 2 1.0 5.0 9 10
r 0.18359 1 2 cbr 210 ------- 2 1.0 5.0 21 22
+ 0.18359 2 3 cbr 210 ------- 2 1.0 5.0 21 22
- 0.18359 2 3 cbr 210 ------- 2 1.0 5.0 21 22
r 0.18468 2 3 cbr 210 ------- 2 1.0 5.0 20 21
h 0.18468 3 6 cbr 210 ------- 2 1.0 5.0 20 21
+ 0.18625 1 2 cbr 210 ------- 2 1.0 5.0 23 24
- 0.18625 1 2 cbr 210 ------- 2 1.0 5.0 23 24
+ 0.18718 3 6 cbr 210 ------- 2 1.0 5.0 10 11
- 0.18718 3 6 cbr 210 ------- 2 1.0 5.0 10 11
d 0.187184 4 6 cbr 210 ------- 2 1.0 5.0 10 11
r 0.18734 1 2 cbr 210 ------- 2 1.0 5.0 22 23
+ 0.18734 2 3 cbr 210 ------- 2 1.0 5.0 22 23
- 0.18734 2 3 cbr 210 ------- 2 1.0 5.0 22 23
r 0.188324 6 4 tcp 40 ------- 1 0.0 4.0 0 0
h 0.188324 4 6 ack 40 ------- 1 4.0 0.0 0 25
r 0.18843 2 3 cbr 210 ------- 2 1.0 5.0 21 22
h 0.18843 3 6 cbr 210 ------- 2 1.0 5.0 21 22
r 0.189684 6 5 cbr 210 ------- 2 1.0 5.0 0 1
+ 0.19 1 2 cbr 210 ------- 2 1.0 5.0 24 26
- 0.19 1 2 cbr 210 ------- 2 1.0 5.0 24 26
+ 0.19093 3 6 cbr 210 ------- 2 1.0 5.0 11 12
- 0.19093 3 6 cbr 210 ------- 2 1.0 5.0 11 12
d 0.190934 4 6 cbr 210 ------- 2 1.0 5.0 11 12
r 0.19109 1 2 cbr 210 ------- 2 1.0 5.0 23 24
+ 0.19109 2 3 cbr 210 ------- 2 1.0 5.0 23 24
- 0.19109 2 3 cbr 210 ------- 2 1.0 5.0 23 24
r 0.19218 2 3 cbr 210 ------- 2 1.0 5.0 22 23
h 0.19218 3 6 cbr 210 ------- 2 1.0 5.0 22 23
r 0.193434 6 5 cbr 210 ------- 2 1.0 5.0 1 2
+ 0.19375 1 2 cbr 210 ------- 2 1.0 5.0 25 27
- 0.19375 1 2 cbr 210 ------- 2 1.0 5.0 25 27
+ 0.19468 3 6 cbr 210 ------- 2 1.0 5.0 12 13
- 0.19468 3 6 cbr 210 ------- 2 1.0 5.0 12 13
d 0.194684 4 6 cbr 210 ------- 2 1.0 5.0 12 13
r 0.19484 1 2 cbr 210 ------- 2 1.0 5.0 24 26
+ 0.19484 2 3 cbr 210 ------- 2 1.0 5.0 24 26
- 0.19484 2 3 cbr 210 ------- 2 1.0 5.0 24 26
r 0.19593 2 3 cbr 210 ------- 2 1.0 5.0 23 24
h 0.19593 3 6 cbr 210 ------- 2 1.0 5.0 23 24
r 0.197184 6 5 cbr 210 ------- 2 1.0 5.0 2 3
+ 0.1975 1 2 cbr 210 ------- 2 1.0 5.0 26 28
- 0.1975 1 2 cbr 210 ------- 2 1.0 5.0 26 28
+ 0.19843 3 6 cbr 210 ------- 2 1.0 5.0 13 14
- 0.19843 3 6 cbr 210 ------- 2 1.0 5.0 13 14
d 0.198434 4 6 cbr 210 ------- 2 1.0 5.0 13 14
r 0.19859 1 2 cbr 210 ------- 2 1.0 5.0 25 27
+ 0.19859 2 3 cbr 210 ------- 2 1.0 5.0 25 27
- 0.19859 2 3 cbr 210 ------- 2 1.0 5.0 25 27
r 0.19968 2 3 cbr 210 ------- 2 1.0 5.0 24 26
h 0.19968 3 6 cbr 210 ------- 2 1.0 5.0 24 26
r 0.200934 6 5 cbr 210 ------- 2 1.0 5.0 3 4
+ 0.20125 1 2 cbr 210 ------- 2 1.0 5.0 27 29
- 0.20125 1 2 cbr 210 ------- 2 1.0 5.0 27 29
+ 0.20218 3 6 cbr 210 ------- 2 1.0 5.0 14 15
- 0.20218 3 6 cbr 210 ------- 2 1.0 5.0 14 15
d 0.202184 4 6 cbr 210 ------- 2 1.0 5.0 14 15
r 0.20234 1 2 cbr 210 ------- 2 1.0 5.0 26 28
+ 0.20234 2 3 cbr 210 ------- 2 1.0 5.0 26 28
- 0.20234 2 3 cbr 210 ------- 2 1.0 5.0 26 28
r 0.20343 2 3 cbr 210 ------- 2 1.0 5.0 25 27
h 0.20343 3 6 cbr 210 ------- 2 1.0 5.0 25 27
r 0.204684 6 5 cbr 210 ------- 2 1.0 5.0 4 5
+ 0.205 1 2 cbr 210 ------- 2 1.0 5.0 28 30
- 0.205 1 2 cbr 210 ------- 2 1.0 5.0 28 30
+ 0.20593 3 6 cbr 210 ------- 2 1.0 5.0 15 16
- 0.20593 3 6 cbr 210 ------- 2 1.0 5.0 15 16
d 0.205934 4 6 cbr 210 ------- 2 1.0 5.0 15 16
r 0.20609 1 2 cbr 210 ------- 2 1.0 5.0 27 29
+ 0.20609 2 3 cbr 210 ------- 2 1.0 5.0 27 29
- 0.20609 2 3 cbr 210 ------- 2 1.0 5.0 27 29
r 0.20718 2 3 cbr 210 ------- 2 1.0 5.0 26 28
h 0.20718 3 6 cbr 210 ------- 2 1.0 5.0 26 28
r 0.208434 6 5 cbr 210 ------- 2 1.0 5.0 5 6
+ 0.20875 1 2 cbr 210 ------- 2 1.0 5.0 29 31
- 0.20875 1 2 cbr 210 ------- 2 1.0 5.0 29 31
+ 0.20968 3 6 cbr 210 ------- 2 1.0 5.0 16 17
- 0.20968 3 6 cbr 210 ------- 2 1.0 5.0 16 17
d 0.209684 4 6 cbr 210 ------- 2 1.0 5.0 16 17
r 0.20984 1 2 cbr 210 ------- 2 1.0 5.0 28 30
+ 0.20984 2 3 cbr 210 ------- 2 1.0 5.0 28 30
- 0.20984 2 3 cbr 210 ------- 2 1.0 5.0 28 30
r 0.21093 2 3 cbr 210 ------- 2 1.0 5.0 27 29
h 0.21093 3 6 cbr 210 ------- 2 1.0 5.0 27 29
r 0.212184 6 5 cbr 210 ------- 2 1.0 5.0 6 7
+ 0.2125 1 2 cbr 210 ------- 2 1.0 5.0 30 32
- 0.2125 1 2 cbr 210 ------- 2 1.0 5.0 30 32
+ 0.21343 3 6 cbr 210 ------- 2 1.0 5.0 17 18
- 0.21343 3 6 cbr 210 ------- 2 1.0 5.0 17 18
d 0.213434 4 6 cbr 210 ------- 2 1.0 5.0 17 18
r 0.21359 1 2 cbr 210 ------- 2 1.0 5.0 29 31
+ 0.21359 2 3 cbr 210 ------- 2 1.0 5.0 29 31
- 0.21359 2 3 cbr 210 ------- 2 1.0 5.0 29 31
r 0.21468 2 3 cbr 210 ------- 2 1.0 5.0 28 30
h 0.21468 3 6 cbr 210 ------- 2 1.0 5.0 28 30
r 0.215934 6 5 cbr 210 ------- 2 1.0 5.0 7 8
+ 0.21625 1 2 cbr 210 ------- 2 1.0 5.0 31 33
- 0.21625 1 2 cbr 210 ------- 2 1.0 5.0 31 33
+ 0.21718 3 6 cbr 210 ------- 2 1.0 5.0 18 19
- 0.21718 3 6 cbr 210 ------- 2 1.0 5.0 18 19
d 0.217184 4 6 cbr 210 ------- 2 1.0 5.0 18 19
r 0.21734 1 2 cbr 210 ------- 2 1.0 5.0 30 32
+ 0.21734 2 3 cbr 210 ------- 2 1.0 5.0 30 32
- 0.21734 2 3 cbr 210 ------- 2 1.0 5.0 30 32
r 0.21843 2 3 cbr 210 ------- 2 1.0 5.0 29 31
h 0.21843 3 6 cbr 210 ------- 2 1.0 5.0 29 31
r 0.219684 6 5 cbr 210 ------- 2 1.0 5.0 8 9
+ 0.22 1 2 cbr 210 ------- 2 1.0 5.0 32 34
- 0.22 1 2 cbr 210 ------- 2 1.0 5.0 32 34
+ 0.22093 3 6 cbr 210 ------- 2 1.0 5.0 19 20
- 0.22093 3 6 cbr 210 ------- 2 1.0 5.0 19 20
d 0.220934 4 6 cbr 210 ------- 2 1.0 5.0 19 20
r 0.22109 1 2 cbr 210 ------- 2 1.0 5.0 31 33
+ 0.22109 2 3 cbr 210 ------- 2 1.0 5.0 31 33
- 0.22109 2 3 cbr 210 ------- 2 1.0 5.0 31 33
r 0.22218 2 3 cbr 210 ------- 2 1.0 5.0 30 32
h 0.22218 3 6 cbr 210 ------- 2 1.0 5.0 30 32
r 0.223434 6 5 cbr 210 ------- 2 1.0 5.0 9 10
+ 0.22375 1 2 cbr 210 ------- 2 1.0 5.0 33 35
- 0.22375 1 2 cbr 210 ------- 2 1.0 5.0 33 35
+ 0.22468 3 6 cbr 210 ------- 2 1.0 5.0 20 21
- 0.22468 3 6 cbr 210 ------- 2 1.0 5.0 20 21
d 0.224684 4 6 cbr 210 ------- 2 1.0 5.0 20 21
r 0.22484 1 2 cbr 210 ------- 2 1.0 5.0 32 34
+ 0.22484 2 3 cbr 210 ------- 2 1.0 5.0 32 34
- 0.22484 2 3 cbr 210 ------- 2 1.0 5.0 32 34
r 0.22593 2 3 cbr 210 ------- 2 1.0 5.0 31 33
h 0.22593 3 6 cbr 210 ------- 2 1.0 5.0 31 33
r 0.227184 6 5 cbr 210 ------- 2 1.0 5.0 10 11
+ 0.2275 1 2 cbr 210 ------- 2 1.0 5.0 34 36
- 0.2275 1 2 cbr 210 ------- 2 1.0 5.0 34 36
+ 0.228324 4 6 ack 40 ------- 1 4.0 0.0 0 25
- 0.228324 4 6 ack 40 ------- 1 4.0 0.0 0 25
d 0.228328 5 6 ack 40 ------- 1 4.0 0.0 0 25
+ 0.22843 3 6 cbr 210 ------- 2 1.0 5.0 21 22
- 0.22843 3 6 cbr 210 ------- 2 1.0 5.0 21 22
d 0.228434 4 6 cbr 210 ------- 2 1.0 5.0 21 22
r 0.22859 1 2 cbr 210 ------- 2 1.0 5.0 33 35
+ 0.22859 2 3 cbr 210 ------- 2 1.0 5.0 33 35
- 0.22859 2 3 cbr 210 ------- 2 1.0 5.0 33 35
r 0.22968 2 3 cbr 210 ------- 2 1.0 5.0 32 34
h 0.22968 3 6 cbr 210 ------- 2 1.0 5.0 32 34
r 0.230934 6 5 cbr 210 ------- 2 1.0 5.0 11 12
+ 0.23125 1 2 cbr 210 ------- 2 1.0 5.0 35 37
- 0.23125 1 2 cbr 210 ------- 2 1.0 5.0 35 37
+ 0.23218 3 6 cbr 210 ------- 2 1.0 5.0 22 23
- 0.23218 3 6 cbr 210 ------- 2 1.0 5.0 22 23
d 0.232184 4 6 cbr 210 ------- 2 1.0 5.0 22 23
r 0.23234 1 2 cbr 210 ------- 2 1.0 5.0 34 36
+ 0.23234 2 3 cbr 210 ------- 2 1.0 5.0 34 36
- 0.23234 2 3 cbr 210 ------- 2 1.0 5.0 34 36
r 0.23343 2 3 cbr 210 ------- 2 1.0 5.0 33 35
h 0.23343 3 6 cbr 210 ------- 2 1.0 5.0 33 35
r 0.234684 6 5 cbr 210 ------- 2 1.0 5.0 12 13
+ 0.235 1 2 cbr 210 ------- 2 1.0 5.0 36 38
- 0.235 1 2 cbr 210 ------- 2 1.0 5.0 36 38
+ 0.23593 3 6 cbr 210 ------- 2 1.0 5.0 23 24
- 0.23593 3 6 cbr 210 ------- 2 1.0 5.0 23 24
d 0.235934 4 6 cbr 210 ------- 2 1.0 5.0 23 24
r 0.23609 1 2 cbr 210 ------- 2 1.0 5.0 35 37
+ 0.23609 2 3 cbr 210 ------- 2 1.0 5.0 35 37
- 0.23609 2 3 cbr 210 ------- 2 1.0 5.0 35 37
r 0.23718 2 3 cbr 210 ------- 2 1.0 5.0 34 36
h 0.23718 3 6 cbr 210 ------- 2 1.0 5.0 34 36
r 0.238434 6 5 cbr 210 ------- 2 1.0 5.0 13 14
+ 0.23875 1 2 cbr 210 ------- 2 1.0 5.0 37 39
- 0.23875 1 2 cbr 210 ------- 2 1.0 5.0 37 39
+ 0.23968 3 6 cbr 210 ------- 2 1.0 5.0 24 26
- 0.23968 3 6 cbr 210 ------- 2 1.0 5.0 24 26
d 0.239684 4 6 cbr 210 ------- 2 1.0 5.0 24 26
r 0.23984 1 2 cbr 210 ------- 2 1.0 5.0 36 38
+ 0.23984 2 3 cbr 210 ------- 2 1.0 5.0 36 38
- 0.23984 2 3 cbr 210 ------- 2 1.0 5.0 36 38
r 0.24093 2 3 cbr 210 ------- 2 1.0 5.0 35 37
h 0.24093 3 6 cbr 210 ------- 2 1.0 5.0 35 37
r 0.242184 6 5 cbr 210 ------- 2 1.0 5.0 14 15
+ 0.2425 1 2 cbr 210 ------- 2 1.0 5.0 38 40
- 0.2425 1 2 cbr 210 ------- 2 1.0 5.0 38 40
+ 0.24343 3 6 cbr 210 ------- 2 1.0 5.0 25 27
- 0.24343 3 6 cbr 210 ------- 2 1.0 5.0 25 27
d 0.243434 4 6 cbr 210 ------- 2 1.0 5.0 25 27
r 0.24359 1 2 cbr 210 ------- 2 1.0 5.0 37 39
+ 0.24359 2 3 cbr 210 ------- 2 1.0 5.0 37 39
- 0.24359 2 3 cbr 210 ------- 2 1.0 5.0 37 39
r 0.24468 2 3 cbr 210 ------- 2 1.0 5.0 36 38
h 0.24468 3 6 cbr 210 ------- 2 1.0 5.0 36 38
r 0.245934 6 5 cbr 210 ------- 2 1.0 5.0 15 16
+ 0.24625 1 2 cbr 210 ------- 2 1.0 5.0 39 41
- 0.24625 1 2 cbr 210 ------- 2 1.0 5.0 39 41
+ 0.24718 3 6 cbr 210 ------- 2 1.0 5.0 26 28
- 0.24718 3 6 cbr 210 ------- 2 1.0 5.0 26 28
d 0.247184 4 6 cbr 210 ------- 2 1.0 5.0 26 28
r 0.24734 1 2 cbr 210 ------- 2 1.0 5.0 38 40
+ 0.24734 2 3 cbr 210 ------- 2 1.0 5.0 38 40
- 0.24734 2 3 cbr 210 ------- 2 1.0 5.0 38 40
r 0.24843 2 3 cbr 210 ------- 2 1.0 5.0 37 39
h 0.24843 3 6 cbr 210 ------- 2 1.0 5.0 37 39
r 0.249684 6 5 cbr 210 ------- 2 1.0 5.0 16 17
+ 0.25 1 2 cbr 210 ------- 2 1.0 5.0 40 42
- 0.25 1 2 cbr 210 ------- 2 1.0 5.0 40 42
+ 0.25093 3 6 cbr 210 ------- 2 1.0 5.0 27 29
- 0.25093 3 6 cbr 210 ------- 2 1.0 5.0 27 29
d 0.250934 4 6 cbr 210 ------- 2 1.0 5.0 27 29
r 0.25109 1 2 cbr 210 ------- 2 1.0 5.0 39 41
+ 0.25109 2 3 cbr 210 ------- 2 1.0 5.0 39 41
- 0.25109 2 3 cbr 210 ------- 2 1.0 5.0 39 41
r 0.25218 2 3 cbr 210 ------- 2 1.0 5.0 38 40
h 0.25218 3 6 cbr 210 ------- 2 1.0 5.0 38 40
r 0.253434 6 5 cbr 210 ------- 2 1.0 5.0 17 18
+ 0.25375 1 2 cbr 210 ------- 2 1.0 5.0 41 43
- 0.25375 1 2 cbr 210 ------- 2 1.0 5.0 41 43
+ 0.25468 3 6 cbr 210 ------- 2 1.0 5.0 28 30
- 0.25468 3 6 cbr 210 ------- 2 1.0 5.0 28 30
d 0.254684 4 6 cbr 210 ------- 2 1.0 5.0 28 30
r 0.25484 1 2 cbr 210 ------- 2 1.0 5.0 40 42
+ 0.25484 2 3 cbr 210 ------- 2 1.0 5.0 40 42
- 0.25484 2 3 cbr 210 ------- 2 1.0 5.0 40 42
r 0.25593 2 3 cbr 210 ------- 2 1.0 5.0 39 41
h 0.25593 3 6 cbr 210 ------- 2 1.0 5.0 39 41
r 0.257184 6 5 cbr 210 ------- 2 1.0 5.0 18 19
+ 0.2575 1 2 cbr 210 ------- 2 1.0 5.0 42 44
- 0.2575 1 2 cbr 210 ------- 2 1.0 5.0 42 44
+ 0.25843 3 6 cbr 210 ------- 2 1.0 5.0 29 31
- 0.25843 3 6 cbr 210 ------- 2 1.0 5.0 29 31
d 0.258434 4 6 cbr 210 ------- 2 1.0 5.0 29 31
r 0.25859 1 2 cbr 210 ------- 2 1.0 5.0 41 43
+ 0.25859 2 3 cbr 210 ------- 2 1.0 5.0 41 43
- 0.25859 2 3 cbr 210 ------- 2 1.0 5.0 41 43
r 0.25968 2 3 cbr 210 ------- 2 1.0 5.0 40 42
h 0.25968 3 6 cbr 210 ------- 2 1.0 5.0 40 42
r 0.260934 6 5 cbr 210 ------- 2 1.0 5.0 19 20
+ 0.26125 1 2 cbr 210 ------- 2 1.0 5.0 43 45
- 0.26125 1 2 cbr 210 ------- 2 1.0 5.0 43 45
+ 0.26218 3 6 cbr 210 ------- 2 1.0 5.0 30 32
- 0.26218 3 6 cbr 210 ------- 2 1.0 5.0 30 32
d 0.262184 4 6 cbr 210 ------- 2 1.0 5.0 30 32
r 0.26234 1 2 cbr 210 ------- 2 1.0 5.0 42 44
+ 0.26234 2 3 cbr 210 ------- 2 1.0 5.0 42 44
- 0.26234 2 3 cbr 210 ------- 2 1.0 5.0 42 44
r 0.26343 2 3 cbr 210 ------- 2 1.0 5.0 41 43
h 0.26343 3 6 cbr 210 ------- 2 1.0 5.0 41 43
r 0.264684 6 5 cbr 210 ------- 2 1.0 5.0 20 21
+ 0.265 1 2 cbr 210 ------- 2 1.0 5.0 44 46
- 0.265 1 2 cbr 210 ------- 2 1.0 5.0 44 46
+ 0.26593 3 6 cbr 210 ------- 2 1.0 5.0 31 33
- 0.26593 3 6 cbr 210 ------- 2 1.0 5.0 31 33
d 0.265934 4 6 cbr 210 ------- 2 1.0 5.0 31 33
r 0.26609 1 2 cbr 210 ------- 2 1.0 5.0 43 45
+ 0.26609 2 3 cbr 210 ------- 2 1.0 5.0 43 45
- 0.26609 2 3 cbr 210 ------- 2 1.0 5.0 43 45
r 0.26718 2 3 cbr 210 ------- 2 1.0 5.0 42 44
h 0.26718 3 6 cbr 210 ------- 2 1.0 5.0 42 44
r 0.268328 6 3 ack 40 ------- 1 4.0 0.0 0 25
+ 0.268328 3 2 ack 40 ------- 1 4.0 0.0 0 25
- 0.268328 3 2 ack 40 ------- 1 4.0 0.0 0 25
r 0.268434 6 5 cbr 210 ------- 2 1.0 5.0 21 22
+ 0.26875 1 2 cbr 210 ------- 2 1.0 5.0 45 47
- 0.26875 1 2 cbr 210 ------- 2 1.0 5.0 45 47
+ 0.26968 3 6 cbr 210 ------- 2 1.0 5.0 32 34
- 0.26968 3 6 cbr 210 ------- 2 1.0 5.0 32 34
d 0.269684 4 6 cbr 210 ------- 2 1.0 5.0 32 34
r 0.26984 1 2 cbr 210 ------- 2 1.0 5.0 44 46
+ 0.26984 2 3 cbr 210 ------- 2 1.0 5.0 44 46
- 0.26984 2 3 cbr 210 ------- 2 1.0 5.0 44 46
r 0.27093 2 3 cbr 210 ------- 2 1.0 5.0 43 45
h 0.27093 3 6 cbr 210 ------- 2 1.0 5.0 43 45
r 0.272184 6 5 cbr 210 ------- 2 1.0 5.0 22 23
r 0.272488 3 2 ack 40 ------- 1 4.0 0.0 0 25
+ 0.272488 2 0 ack 40 ------- 1 4.0 0.0 0 25
- 0.272488 2 0 ack 40 ------- 1 4.0 0.0 0 25
+ 0.2725 1 2 cbr 210 ------- 2 1.0 5.0 46 48
- 0.2725 1 2 cbr 210 ------- 2 1.0 5.0 46 48
+ 0.27343 3 6 cbr 210 ------- 2 1.0 5.0 33 35
- 0.27343 3 6 cbr 210 ------- 2 1.0 5.0 33 35
d 0.273434 4 6 cbr 210 ------- 2 1.0 5.0 33 35
r 0.27359 1 2 cbr 210 ------- 2 1.0 5.0 45 47
+ 0.27359 2 3 cbr 210 ------- 2 1.0 5.0 45 47
- 0.27359 2 3 cbr 210 ------- 2 1.0 5.0 45 47
r 0.27468 2 3 cbr 210 ------- 2 1.0 5.0 44 46
h 0.27468 3 6 cbr 210 ------- 2 1.0 5.0 44 46
r 0.275934 6 5 cbr 210 ------- 2 1.0 5.0 23 24
+ 0.27625 1 2 cbr 210 ------- 2 1.0 5.0 47 49
- 0.27625 1 2 cbr 210 ------- 2 1.0 5.0 47 49
r 0.276648 2 0 ack 40 ------- 1 4.0 0.0 0 25
+ 0.276648 0 2 tcp 1040 ------- 1 0.0 4.0 1 50
- 0.276648 0 2 tcp 1040 ------- 1 0.0 4.0 1 50
+ 0.276648 0 2 tcp 1040 ------- 1 0.0 4.0 2 51
+ 0.27718 3 6 cbr 210 ------- 2 1.0 5.0 34 36
- 0.27718 3 6 cbr 210 ------- 2 1.0 5.0 34 36
d 0.277184 4 6 cbr 210 ------- 2 1.0 5.0 34 36
r 0.27734 1 2 cbr 210 ------- 2 1.0 5.0 46 48
+ 0.27734 2 3 cbr 210 ------- 2 1.0 5.0 46 48
- 0.27734 2 3 cbr 210 ------- 2 1.0 5.0 46 48
r 0.27843 2 3 cbr 210 ------- 2 1.0 5.0 45 47
h 0.27843 3 6 cbr 210 ------- 2 1.0 5.0 45 47
r 0.279684 6 5 cbr 210 ------- 2 1.0 5.0 24 26
+ 0.28 1 2 cbr 210 ------- 2 1.0 5.0 48 52
- 0.28 1 2 cbr 210 ------- 2 1.0 5.0 48 52
- 0.280808 0 2 tcp 1040 ------- 1 0.0 4.0 2 51
+ 0.28093 3 6 cbr 210 ------- 2 1.0 5.0 35 37
- 0.28093 3 6 cbr 210 ------- 2 1.0 5.0 35 37
d 0.280934 4 6 cbr 210 ------- 2 1.0 5.0 35 37
r 0.28109 1 2 cbr 210 ------- 2 1.0 5.0 47 49
+ 0.28109 2 3 cbr 210 ------- 2 1.0 5.0 47 49
- 0.28109 2 3 cbr 210 ------- 2 1.0 5.0 47 49
r 0.28218 2 3 cbr 210 ------- 2 1.0 5.0 46 48
h 0.28218 3 6 cbr 210 ------- 2 1.0 5.0 46 48
r 0.283434 6 5 cbr 210 ------- 2 1.0 5.0 25 27
+ 0.28375 1 2 cbr 210 ------- 2 1.0 5.0 49 53
- 0.28375 1 2 cbr 210 ------- 2 1.0 5.0 49 53
+ 0.28468 3 6 cbr 210 ------- 2 1.0 5.0 36 38
- 0.28468 3 6 cbr 210 ------- 2 1.0 5.0 36 38
d 0.284684 4 6 cbr 210 ------- 2 1.0 5.0 36 38
r 0.284808 0 2 tcp 1040 ------- 1 0.0 4.0 1 50
+ 0.284808 2 3 tcp 1040 ------- 1 0.0 4.0 1 50
- 0.284808 2 3 tcp 1040 ------- 1 0.0 4.0 1 50
r 0.28484 1 2 cbr 210 ------- 2 1.0 5.0 48 52
+ 0.28484 2 3 cbr 210 ------- 2 1.0 5.0 48 52
r 0.28593 2 3 cbr 210 ------- 2 1.0 5.0 47 49
h 0.28593 3 6 cbr 210 ------- 2 1.0 5.0 47 49
r 0.287184 6 5 cbr 210 ------- 2 1.0 5.0 26 28
+ 0.2875 1 2 cbr 210 ------- 2 1.0 5.0 50 54
- 0.2875 1 2 cbr 210 ------- 2 1.0 5.0 50 54
+ 0.28843 3 6 cbr 210 ------- 2 1.0 5.0 37 39
- 0.28843 3 6 cbr 210 ------- 2 1.0 5.0 37 39
d 0.288434 4 6 cbr 210 ------- 2 1.0 5.0 37 39
r 0.28859 1 2 cbr 210 ------- 2 1.0 5.0 49 53
+ 0.28859 2 3 cbr 210 ------- 2 1.0 5.0 49 53
r 0.288968 0 2 tcp 1040 ------- 1 0.0 4.0 2 51
+ 0.288968 2 3 tcp 1040 ------- 1 0.0 4.0 2 51
- 0.288968 2 3 cbr 210 ------- 2 1.0 5.0 48 52
- 0.289808 2 3 cbr 210 ------- 2 1.0 5.0 49 53
- 0.290648 2 3 tcp 1040 ------- 1 0.0 4.0 2 51
r 0.290934 6 5 cbr 210 ------- 2 1.0 5.0 27 29
+ 0.29125 1 2 cbr 210 ------- 2 1.0 5.0 51 55
- 0.29125 1 2 cbr 210 ------- 2 1.0 5.0 51 55
+ 0.29218 3 6 cbr 210 ------- 2 1.0 5.0 38 40
- 0.29218 3 6 cbr 210 ------- 2 1.0 5.0 38 40
d 0.292184 4 6 cbr 210 ------- 2 1.0 5.0 38 40
r 0.29234 1 2 cbr 210 ------- 2 1.0 5.0 50 54
+ 0.29234 2 3 cbr 210 ------- 2 1.0 5.0 50 54
r 0.292968 2 3 tcp 1040 ------- 1 0.0 4.0 1 50
h 0.292968 3 6 tcp 1040 ------- 1 0.0 4.0 1 50
r 0.293808 2 3 cbr 210 ------- 2 1.0 5.0 48 52
h 0.293808 3 6 cbr 210 ------- 2 1.0 5.0 48 52
r 0.294648 2 3 cbr 210 ------- 2 1.0 5.0 49 53
h 0.294648 3 6 cbr 210 ------- 2 1.0 5.0 49 53
r 0.294684 6 5 cbr 210 ------- 2 1.0 5.0 28 30
- 0.294808 2 3 cbr 210 ------- 2 1.0 5.0 50 54
+ 0.295 1 2 cbr 210 ------- 2 1.0 5.0 52 56
- 0.295 1 2 cbr 210 ------- 2 1.0 5.0 52 56
+ 0.29593 3 6 cbr 210 ------- 2 1.0 5.0 39 41
- 0.29593 3 6 cbr 210 ------- 2 1.0 5.0 39 41
d 0.295934 4 6 cbr 210 ------- 2 1.0 5.0 39 41
r 0.29609 1 2 cbr 210 ------- 2 1.0 5.0 51 55
+ 0.29609 2 3 cbr 210 ------- 2 1.0 5.0 51 55
- 0.29609 2 3 cbr 210 ------- 2 1.0 5.0 51 55
r 0.298434 6 5 cbr 210 ------- 2 1.0 5.0 29 31
+ 0.29875 1 2 cbr 210 ------- 2 1.0 5.0 53 57
- 0.29875 1 2 cbr 210 ------- 2 1.0 5.0 53 57
r 0.298808 2 3 tcp 1040 ------- 1 0.0 4.0 2 51
h 0.298808 3 6 tcp 1040 ------- 1 0.0 4.0 2 51
r 0.299648 2 3 cbr 210 ------- 2 1.0 5.0 50 54
h 0.299648 3 6 cbr 210 ------- 2 1.0 5.0 50 54
+ 0.29968 3 6 cbr 210 ------- 2 1.0 5.0 40 42
- 0.29968 3 6 cbr 210 ------- 2 1.0 5.0 40 42
d 0.299684 4 6 cbr 210 ------- 2 1.0 5.0 40 42
r 0.29984 1 2 cbr 210 ------- 2 1.0 5.0 52 56
+ 0.29984 2 3 cbr 210 ------- 2 1.0 5.0 52 56
- 0.29984 2 3 cbr 210 ------- 2 1.0 5.0 52 56
r 0.30093 2 3 cbr 210 ------- 2 1.0 5.0 51 55
h 0.30093 3 6 cbr 210 ------- 2 1.0 5.0 51 55
r 0.302184 6 5 cbr 210 ------- 2 1.0 5.0 30 32
+ 0.3025 1 2 cbr 210 ------- 2 1.0 5.0 54 58
- 0.3025 1 2 cbr 210 ------- 2 1.0 5.0 54 58
+ 0.30343 3 6 cbr 210 ------- 2 1.0 5.0 41 43
- 0.30343 3 6 cbr 210 ------- 2 1.0 5.0 41 43
d 0.303434 4 6 cbr 210 ------- 2 1.0 5.0 41 43
r 0.30359 1 2 cbr 210 ------- 2 1.0 5.0 53 57
+ 0.30359 2 3 cbr 210 ------- 2 1.0 5.0 53 57
- 0.30359 2 3 cbr 210 ------- 2 1.0 5.0 53 57
r 0.30468 2 3 cbr 210 ------- 2 1.0 5.0 52 56
h 0.30468 3 6 cbr 210 ------- 2 1.0 5.0 52 56
r 0.305934 6 5 cbr 210 ------- 2 1.0 5.0 31 33
+ 0.30625 1 2 cbr 210 ------- 2 1.0 5.0 55 59
- 0.30625 1 2 cbr 210 ------- 2 1.0 5.0 55 59
+ 0.30718 3 6 cbr 210 ------- 2 1.0 5.0 42 44
- 0.30718 3 6 cbr 210 ------- 2 1.0 5.0 42 44
d 0.307184 4 6 cbr 210 ------- 2 1.0 5.0 42 44
r 0.30734 1 2 cbr 210 ------- 2 1.0 5.0 54 58
+ 0.30734 2 3 cbr 210 ------- 2 1.0 5.0 54 58
- 0.30734 2 3 cbr 210 ------- 2 1.0 5.0 54 58
r 0.30843 2 3 cbr 210 ------- 2 1.0 5.0 53 57
h 0.30843 3 6 cbr 210 ------- 2 1.0 5.0 53 57
r 0.309684 6 5 cbr 210 ------- 2 1.0 5.0 32 34
+ 0.31 1 2 cbr 210 ------- 2 1.0 5.0 56 60
- 0.31 1 2 cbr 210 ------- 2 1.0 5.0 56 60
+ 0.31093 3 6 cbr 210 ------- 2 1.0 5.0 43 45
- 0.31093 3 6 cbr 210 ------- 2 1.0 5.0 43 45
d 0.310934 4 6 cbr 210 ------- 2 1.0 5.0 43 45
r 0.31109 1 2 cbr 210 ------- 2 1.0 5.0 55 59
+ 0.31109 2 3 cbr 210 ------- 2 1.0 5.0 55 59
- 0.31109 2 3 cbr 210 ------- 2 1.0 5.0 55 59
r 0.31218 2 3 cbr 210 ------- 2 1.0 5.0 54 58
h 0.31218 3 6 cbr 210 ------- 2 1.0 5.0 54 58
r 0.313434 6 5 cbr 210 ------- 2 1.0 5.0 33 35
+ 0.31375 1 2 cbr 210 ------- 2 1.0 5.0 57 61
- 0.31375 1 2 cbr 210 ------- 2 1.0 5.0 57 61
+ 0.31468 3 6 cbr 210 ------- 2 1.0 5.0 44 46
- 0.31468 3 6 cbr 210 ------- 2 1.0 5.0 44 46
d 0.314684 4 6 cbr 210 ------- 2 1.0 5.0 44 46
r 0.31484 1 2 cbr 210 ------- 2 1.0 5.0 56 60
+ 0.31484 2 3 cbr 210 ------- 2 1.0 5.0 56 60
- 0.31484 2 3 cbr 210 ------- 2 1.0 5.0 56 60
r 0.31593 2 3 cbr 210 ------- 2 1.0 5.0 55 59
h 0.31593 3 6 cbr 210 ------- 2 1.0 5.0 55 59
r 0.317184 6 5 cbr 210 ------- 2 1.0 5.0 34 36
+ 0.3175 1 2 cbr 210 ------- 2 1.0 5.0 58 62
- 0.3175 1 2 cbr 210 ------- 2 1.0 5.0 58 62
+ 0.31843 3 6 cbr 210 ------- 2 1.0 5.0 45 47
- 0.31843 3 6 cbr 210 ------- 2 1.0 5.0 45 47
d 0.318434 4 6 cbr 210 ------- 2 1.0 5.0 45 47
r 0.31859 1 2 cbr 210 ------- 2 1.0 5.0 57 61
+ 0.31859 2 3 cbr 210 ------- 2 1.0 5.0 57 61
- 0.31859 2 3 cbr 210 ------- 2 1.0 5.0 57 61
r 0.31968 2 3 cbr 210 ------- 2 1.0 5.0 56 60
h 0.31968 3 6 cbr 210 ------- 2 1.0 5.0 56 60
r 0.320934 6 5 cbr 210 ------- 2 1.0 5.0 35 37
+ 0.32125 1 2 cbr 210 ------- 2 1.0 5.0 59 63
- 0.32125 1 2 cbr 210 ------- 2 1.0 5.0 59 63
+ 0.32218 3 6 cbr 210 ------- 2 1.0 5.0 46 48
- 0.32218 3 6 cbr 210 ------- 2 1.0 5.0 46 48
d 0.322184 4 6 cbr 210 ------- 2 1.0 5.0 46 48
r 0.32234 1 2 cbr 210 ------- 2 1.0 5.0 58 62
+ 0.32234 2 3 cbr 210 ------- 2 1.0 5.0 58 62
- 0.32234 2 3 cbr 210 ------- 2 1.0 5.0 58 62
r 0.32343 2 3 cbr 210 ------- 2 1.0 5.0 57 61
h 0.32343 3 6 cbr 210 ------- 2 1.0 5.0 57 61
r 0.324684 6 5 cbr 210 ------- 2 1.0 5.0 36 38
+ 0.325 1 2 cbr 210 ------- 2 1.0 5.0 60 64
- 0.325 1 2 cbr 210 ------- 2 1.0 5.0 60 64
+ 0.32593 3 6 cbr 210 ------- 2 1.0 5.0 47 49
- 0.32593 3 6 cbr 210 ------- 2 1.0 5.0 47 49
d 0.325934 4 6 cbr 210 ------- 2 1.0 5.0 47 49
r 0.32609 1 2 cbr 210 ------- 2 1.0 5.0 59 63
+ 0.32609 2 3 cbr 210 ------- 2 1.0 5.0 59 63
- 0.32609 2 3 cbr 210 ------- 2 1.0 5.0 59 63
r 0.32718 2 3 cbr 210 ------- 2 1.0 5.0 58 62
h 0.32718 3 6 cbr 210 ------- 2 1.0 5.0 58 62
r 0.328434 6 5 cbr 210 ------- 2 1.0 5.0 37 39
+ 0.32875 1 2 cbr 210 ------- 2 1.0 5.0 61 65
- 0.32875 1 2 cbr 210 ------- 2 1.0 5.0 61 65
r 0.32984 1 2 cbr 210 ------- 2 1.0 5.0 60 64
+ 0.32984 2 3 cbr 210 ------- 2 1.0 5.0 60 64
- 0.32984 2 3 cbr 210 ------- 2 1.0 5.0 60 64
r 0.33093 2 3 cbr 210 ------- 2 1.0 5.0 59 63
h 0.33093 3 6 cbr 210 ------- 2 1.0 5.0 59 63
r 0.332184 6 5 cbr 210 ------- 2 1.0 5.0 38 40
+ 0.3325 1 2 cbr 210 ------- 2 1.0 5.0 62 66
- 0.3325 1 2 cbr 210 ------- 2 1.0 5.0 62 66
+ 0.332968 3 6 tcp 1040 ------- 1 0.0 4.0 1 50
- 0.332968 3 6 tcp 1040 ------- 1 0.0 4.0 1 50
d 0.332972 5 6 tcp 1040 ------- 1 0.0 4.0 1 50
r 0.33359 1 2 cbr 210 ------- 2 1.0 5.0 61 65
+ 0.33359 2 3 cbr 210 ------- 2 1.0 5.0 61 65
- 0.33359 2 3 cbr 210 ------- 2 1.0 5.0 61 65
+ 0.333808 3 6 cbr 210 ------- 2 1.0 5.0 48 52
+ 0.334648 3 6 cbr 210 ------- 2 1.0 5.0 49 53
r 0.33468 2 3 cbr 210 ------- 2 1.0 5.0 60 64