V -t * -v 1.0a5 -a 0
A -t * -n 1 -p 0 -o 0x7fffffff -c 30 -a 1
A -t * -h 1 -m 1073741823 -s 0
c -t * -i 1 -n Green
c -t * -i 2 -n Red
n -t * -a 4 -s 4 -S UP -v circle -c black -i black
n -t * -a 0 -s 0 -S UP -v circle -c black -i black
n -t * -a 5 -s 5 -S UP -v circle -c black -i black
n -t * -a 1 -s 1 -S UP -v circle -c black -i black
n -t * -a 2 -s 2 -S UP -v circle -c black -i black
n -t * -a 3 -s 3 -S UP -v circle -c black -i black
l -t * -s 0 -d 2 -S UP -r 2000000 -D 0.0040000000000000001 -c black -o right-down
l -t * -s 1 -d 2 -S UP -r 2000000 -D 0.0040000000000000001 -c black -o right-up
l -t * -s 2 -d 3 -S UP -r 2000000 -D 0.0040000000000000001 -c black -o right
X -t * -n 6 -r 1Mb -D 40ms -o left
L -t * -s 6 -d 3 -o up
L -t * -s 6 -d 4 -o down
L -t * -s 6 -d 5 -o up
q -t * -s 3 -d 2 -a 0.5
q -t * -s 2 -d 3 -a 0.5
+ -t 0.1 -s 0 -d 2 -p tcp -e 40 -c 1 -i 0 -a 1 -x {0.0 4.0 0 ------- null}
- -t 0.1 -s 0 -d 2 -p tcp -e 40 -c 1 -i 0 -a 1 -x {0.0 4.0 0 ------- null}
h -t 0.1 -s 0 -d 2 -p tcp -e 40 -c 1 -i 0 -a 1 -x {0.0 4.0 -1 ------- null}
+ -t 0.1 -s 1 -d 2 -p cbr -e 210 -c 2 -i 1 -a 2 -x {1.0 5.0 0 ------- null}
- -t 0.1 -s 1 -d 2 -p cbr -e 210 -c 2 -i 1 -a 2 -x {1.0 5.0 0 ------- null}
h -t 0.1 -s 1 -d 2 -p cbr -e 210 -c 2 -i 1 -a 2 -x {1.0 5.0 -1 ------- null}
+ -t 0.10375 -s 1 -d 2 -p cbr -e 210 -c 2 -i 2 -a 2 -x {1.0 5.0 1 ------- null}
- -t 0.10375 -s 1 -d 2 -p cbr -e 210 -c 2 -i 2 -a 2 -x {1.0 5.0 1 ------- null}
h -t 0.10375 -s 1 -d 2 -p cbr -e 210 -c 2 -i 2 -a 2 -x {1.0 5.0 -1 ------- null}
r -t 0.10416 -s 0 -d 2 -p tcp -e 40 -c 1 -i 0 -a 1 -x {0.0 4.0 0 ------- null}
+ -t 0.10416 -s 2 -d 3 -p tcp -e 40 -c 1 -i 0 -a 1 -x {0.0 4.0 0 ------- null}
- -t 0.10416 -s 2 -d 3 -p tcp -e 40 -c 1 -i 0 -a 1 -x {0.0 4.0 0 ------- null}
h -t 0.10416 -s 2 -d 3 -p tcp -e 40 -c 1 -i 0 -a 1 -x {0.0 4.0 -1 ------- null}
r -t 0.10484 -s 1 -d 2 -p cbr -e 210 -c 2 -i 1 -a 2 -x {1.0 5.0 0 ------- null}
+ -t 0.10484 -s 2 -d 3 -p cbr -e 210 -c 2 -i 1 -a 2 -x {1.0 5.0 0 ------- null}
- -t 0.10484 -s 2 -d 3 -p cbr -e 210 -c 2 -i 1 -a 2 -x {1.0 5.0 0 ------- null}
h -t 0.10484 -s 2 -d 3 -p cbr -e 210 -c 2 -i 1 -a 2 -x {1.0 5.0 -1 ------- null}
+ -t 0.1075 -s 1 -d 2 -p cbr -e 210 -c 2 -i 3 -a 2 -x {1.0 5.0 2 ------- null}
- -t 0.1075 -s 1 -d 2 -p cbr -e 210 -c 2 -i 3 -a 2 -x {1.0 5.0 2 ------- null}
h -t 0.1075 -s 1 -d 2 -p cbr -e 210 -c 2 -i 3 -a 2 -x {1.0 5.0 -1 ------- null}
r -t 0.10832 -s 2 -d 3 -p tcp -e 40 -c 1 -i 0 -a 1 -x {0.0 4.0 0 ------- null}
h -t 0.10832 -s 3 -d 6 -p tcp -e 40 -c 1 -i 0 -a 1 -x {0.0 4.0 0 ------- null}
r -t 0.10859 -s 1 -d 2 -p cbr -e 210 -c 2 -i 2 -a 2 -x {1.0 5.0 1 ------- null}
+ -t 0.10859 -s 2 -d 3 -p cbr -e 210 -c 2 -i 2 -a 2 -x {1.0 5.0 1 ------- null}
- -t 0.10859 -s 2 -d 3 -p cbr -e 210 -c 2 -i 2 -a 2 -x {1.0 5.0 1 ------- null}
h -t 0.10859 -s 2 -d 3 -p cbr -e 210 -c 2 -i 2 -a 2 -x {1.0 5.0 -1 ------- null}
r -t 0.10968 -s 2 -d 3 -p cbr -e 210 -c 2 -i 1 -a 2 -x {1.0 5.0 0 ------- null}
h -t 0.10968 -s 3 -d 6 -p cbr -e 210 -c 2 -i 1 -a 2 -x {1.0 5.0 0 ------- null}
+ -t 0.11125 -s 1 -d 2 -p cbr -e 210 -c 2 -i 4 -a 2 -x {1.0 5.0 3 ------- null}
- -t 0.11125 -s 1 -d 2 -p cbr -e 210 -c 2 -i 4 -a 2 -x {1.0 5.0 3 ------- null}
h -t 0.11125 -s 1 -d 2 -p cbr -e 210 -c 2 -i 4 -a 2 -x {1.0 5.0 -1 ------- null}
r -t 0.11234 -s 1 -d 2 -p cbr -e 210 -c 2 -i 3 -a 2 -x {1.0 5.0 2 ------- null}
+ -t 0.11234 -s 2 -d 3 -p cbr -e 210 -c 2 -i 3 -a 2 -x {1.0 5.0 2 ------- null}
- -t 0.11234 -s 2 -d 3 -p cbr -e 210 -c 2 -i 3 -a 2 -x {1.0 5.0 2 ------- null}
h -t 0.11234 -s 2 -d 3 -p cbr -e 210 -c 2 -i 3 -a 2 -x {1.0 5.0 -1 ------- null}
r -t 0.11343 -s 2 -d 3 -p cbr -e 210 -c 2 -i 2 -a 2 -x {1.0 5.0 1 ------- null}
h -t 0.11343 -s 3 -d 6 -p cbr -e 210 -c 2 -i 2 -a 2 -x {1.0 5.0 1 ------- null}
+ -t 0.115 -s 1 -d 2 -p cbr -e 210 -c 2 -i 5 -a 2 -x {1.0 5.0 4 ------- null}
- -t 0.115 -s 1 -d 2 -p cbr -e 210 -c 2 -i 5 -a 2 -x {1.0 5.0 4 ------- null}
h -t 0.115 -s 1 -d 2 -p cbr -e 210 -c 2 -i 5 -a 2 -x {1.0 5.0 -1 ------- null}
r -t 0.11609 -s 1 -d 2 -p cbr -e 210 -c 2 -i 4 -a 2 -x {1.0 5.0 3 ------- null}
+ -t 0.11609 -s 2 -d 3 -p cbr -e 210 -c 2 -i 4 -a 2 -x {1.0 5.0 3 ------- null}
- -t 0.11609 -s 2 -d 3 -p cbr -e 210 -c 2 -i 4 -a 2 -x {1.0 5.0 3 ------- null}
h -t 0.11609 -s 2 -d 3 -p cbr -e 210 -c 2 -i 4 -a 2 -x {1.0 5.0 -1 ------- null}
r -t 0.11718 -s 2 -d 3 -p cbr -e 210 -c 2 -i 3 -a 2 -x {1.0 5.0 2 ------- null}
h -t 0.11718 -s 3 -d 6 -p cbr -e 210 -c 2 -i 3 -a 2 -x {1.0 5.0 2 ------- null}
+ -t 0.11875 -s 1 -d 2 -p cbr -e 210 -c 2 -i 6 -a 2 -x {1.0 5.0 5 ------- null}
- -t 0.11875 -s 1 -d 2 -p cbr -e 210 -c 2 -i 6 -a 2 -x {1.0 5.0 5 ------- null}
h -t 0.11875 -s 1 -d 2 -p cbr -e 210 -c 2 -i 6 -a 2 -x {1.0 5.0 -1 ------- null}
r -t 0.11984 -s 1 -d 2 -p cbr -e 210 -c 2 -i 5 -a 2 -x {1.0 5.0 4 ------- null}
+ -t 0.11984 -s 2 -d 3 -p cbr -e 210 -c 2 -i 5 -a 2 -x {1.0 5.0 4 ------- null}
- -t 0.11984 -s 2 -d 3 -p cbr -e 210 -c 2 -i 5 -a 2 -x {1.0 5.0 4 ------- null}
h -t 0.11984 -s 2 -d 3 -p cbr -e 210 -c 2 -i 5 -a 2 -x {1.0 5.0 -1 ------- null}
r -t 0.12093 -s 2 -d 3 -p cbr -e 210 -c 2 -i 4 -a 2 -x {1.0 5.0 3 ------- null}
h -t 0.12093 -s 3 -d 6 -p cbr -e 210 -c 2 -i 4 -a 2 -x {1.0 5.0 3 ------- null}
+ -t 0.1225 -s 1 -d 2 -p cbr -e 210 -c 2 -i 7 -a 2 -x {1.0 5.0 6 ------- null}
- -t 0.1225 -s 1 -d 2 -p cbr -e 210 -c 2 -i 7 -a 2 -x {1.0 5.0 6 ------- null}
h -t 0.1225 -s 1 -d 2 -p cbr -e 210 -c 2 -i 7 -a 2 -x {1.0 5.0 -1 ------- null}
r -t 0.12359 -s 1 -d 2 -p cbr -e 210 -c 2 -i 6 -a 2 -x {1.0 5.0 5 ------- null}
+ -t 0.12359 -s 2 -d 3 -p cbr -e 210 -c 2 -i 6 -a 2 -x {1.0 5.0 5 ------- null}
- -t 0.12359 -s 2 -d 3 -p cbr -e 210 -c 2 -i 6 -a 2 -x {1.0 5.0 5 ------- null}
h -t 0.12359 -s 2 -d 3 -p cbr -e 210 -c 2 -i 6 -a 2 -x {1.0 5.0 -1 ------- null}
r -t 0.12468 -s 2 -d 3 -p cbr -e 210 -c 2 -i 5 -a 2 -x {1.0 5.0 4 ------- null}
h -t 0.12468 -s 3 -d 6 -p cbr -e 210 -c 2 -i 5 -a 2 -x {1.0 5.0 4 ------- null}
+ -t 0.12625 -s 1 -d 2 -p cbr -e 210 -c 2 -i 8 -a 2 -x {1.0 5.0 7 ------- null}
- -t 0.12625 -s 1 -d 2 -p cbr -e 210 -c 2 -i 8 -a 2 -x {1.0 5.0 7 ------- null}
h -t 0.12625 -s 1 -d 2 -p cbr -e 210 -c 2 -i 8 -a 2 -x {1.0 5.0 -1 ------- null}
r -t 0.12734 -s 1 -d 2 -p cbr -e 210 -c 2 -i 7 -a 2 -x {1.0 5.0 6 ------- null}
+ -t 0.12734 -s 2 -d 3 -p cbr -e 210 -c 2 -i 7 -a 2 -x {1.0 5.0 6 ------- null}
- -t 0.12734 -s 2 -d 3 -p cbr -e 210 -c 2 -i 7 -a 2 -x {1.0 5.0 6 ------- null}
h -t 0.12734 -s 2 -d 3 -p cbr -e 210 -c 2 -i 7 -a 2 -x {1.0 5.0 -1 ------- null}
r -t 0.12843 -s 2 -d 3 -p cbr -e 210 -c 2 -i 6 -a 2 -x {1.0 5.0 5 ------- null}
h -t 0.12843 -s 3 -d 6 -p cbr -e 210 -c 2 -i 6 -a 2 -x {1.0 5.0 5 ------- null}
+ -t 0.13 -s 1 -d 2 -p cbr -e 210 -c 2 -i 9 -a 2 -x {1.0 5.0 8 ------- null}
- -t 0.13 -s 1 -d 2 -p cbr -e 210 -c 2 -i 9 -a 2 -x {1.0 5.0 8 ------- null}
h -t 0.13 -s 1 -d 2 -p cbr -e 210 -c 2 -i 9 -a 2 -x {1.0 5.0 -1 ------- null}
r -t 0.13109 -s 1 -d 2 -p cbr -e 210 -c 2 -i 8 -a 2 -x {1.0 5.0 7 ------- null}
+ -t 0.13109 -s 2 -d 3 -p cbr -e 210 -c 2 -i 8 -a 2 -x {1.0 5.0 7 ------- null}
- -t 0.13109 -s 2 -d 3 -p cbr -e 210 -c 2 -i 8 -a 2 -x {1.0 5.0 7 ------- null}
h -t 0.13109 -s 2 -d 3 -p cbr -e 210 -c 2 -i 8 -a 2 -x {1.0 5.0 -1 ------- null}
r -t 0.13218 -s 2 -d 3 -p cbr -e 210 -c 2 -i 7 -a 2 -x {1.0 5.0 6 ------- null}
h -t 0.13218 -s 3 -d 6 -p cbr -e 210 -c 2 -i 7 -a 2 -x {1.0 5.0 6 ------- null}
+ -t 0.13375 -s 1 -d 2 -p cbr -e 210 -c 2 -i 10 -a 2 -x {1.0 5.0 9 ------- null}
- -t 0.13375 -s 1 -d 2 -p cbr -e 210 -c 2 -i 10 -a 2 -x {1.0 5.0 9 ------- null}
h -t 0.13375 -s 1 -d 2 -p cbr -e 210 -c 2 -i 10 -a 2 -x {1.0 5.0 -1 ------- null}
r -t 0.13484 -s 1 -d 2 -p cbr -e 210 -c 2 -i 9 -a 2 -x {1.0 5.0 8 ------- null}
+ -t 0.13484 -s 2 -d 3 -p cbr -e 210 -c 2 -i 9 -a 2 -x {1.0 5.0 8 ------- null}
- -t 0.13484 -s 2 -d 3 -p cbr -e 210 -c 2 -i 9 -a 2 -x {1.0 5.0 8 ------- null}
h -t 0.13484 -s 2 -d 3 -p cbr -e 210 -c 2 -i 9 -a 2 -x {1.0 5.0 -1 ------- null}
r -t 0.13593 -s 2 -d 3 -p cbr -e 210 -c 2 -i 8 -a 2 -x {1.0 5.0 7 ------- null}
h -t 0.13593 -s 3 -d 6 -p cbr -e 210 -c 2 -i 8 -a 2 -x {1.0 5.0 7 ------- null}
+ -t 0.1375 -s 1 -d 2 -p cbr -e 210 -c 2 -i 11 -a 2 -x {1.0 5.0 10 ------- null}
- -t 0.1375 -s 1 -d 2 -p cbr -e 210 -c 2 -i 11 -a 2 -x {1.0 5.0 10 ------- null}
h -t 0.1375 -s 1 -d 2 -p cbr -e 210 -c 2 -i 11 -a 2 -x {1.0 5.0 -1 ------- null}
r -t 0.13859 -s 1 -d 2 -p cbr -e 210 -c 2 -i 10 -a 2 -x {1.0 5.0 9 ------- null}
+ -t 0.13859 -s 2 -d 3 -p cbr -e 210 -c 2 -i 10 -a 2 -x {1.0 5.0 9 ------- null}
- -t 0.13859 -s 2 -d 3 -p cbr -e 210 -c 2 -i 10 -a 2 -x {1.0 5.0 9 ------- null}
h -t 0.13859 -s 2 -d 3 -p cbr -e 210 -c 2 -i 10 -a 2 -x {1.0 5.0 -1 ------- null}
r -t 0.13968 -s 2 -d 3 -p cbr -e 210 -c 2 -i 9 -a 2 -x {1.0 5.0 8 ------- null}
h -t 0.13968 -s 3 -d 6 -p cbr -e 210 -c 2 -i 9 -a 2 -x {1.0 5.0 8 ------- null}
+ -t 0.14125 -s 1 -d 2 -p cbr -e 210 -c 2 -i 12 -a 2 -x {1.0 5.0 11 ------- null}
- -t 0.14125 -s 1 -d 2 -p cbr -e 210 -c 2 -i 12 -a 2 -x {1.0 5.0 11 ------- null}
h -t 0.14125 -s 1 -d 2 -p cbr -e 210 -c 2 -i 12 -a 2 -x {1.0 5.0 -1 ------- null}
r -t 0.14234 -s 1 -d 2 -p cbr -e 210 -c 2 -i 11 -a 2 -x {1.0 5.0 10 ------- null}
+ -t 0.14234 -s 2 -d 3 -p cbr -e 210 -c 2 -i 11 -a 2 -x {1.0 5.0 10 ------- null}
- -t 0.14234 -s 2 -d 3 -p cbr -e 210 -c 2 -i 11 -a 2 -x {1.0 5.0 10 ------- null}
h -t 0.14234 -s 2 -d 3 -p cbr -e 210 -c 2 -i 11 -a 2 -x {1.0 5.0 -1 ------- null}
r -t 0.14343 -s 2 -d 3 -p cbr -e 210 -c 2 -i 10 -a 2 -x {1.0 5.0 9 ------- null}
h -t 0.14343 -s 3 -d 6 -p cbr -e 210 -c 2 -i 10 -a 2 -x {1.0 5.0 9 ------- null}
+ -t 0.145 -s 1 -d 2 -p cbr -e 210 -c 2 -i 13 -a 2 -x {1.0 5.0 12 ------- null}
- -t 0.145 -s 1 -d 2 -p cbr -e 210 -c 2 -i 13 -a 2 -x {1.0 5.0 12 ------- null}
h -t 0.145 -s 1 -d 2 -p cbr -e 210 -c 2 -i 13 -a 2 -x {1.0 5.0 -1 ------- null}
r -t 0.14609 -s 1 -d 2 -p cbr -e 210 -c 2 -i 12 -a 2 -x {1.0 5.0 11 ------- null}
+ -t 0.14609 -s 2 -d 3 -p cbr -e 210 -c 2 -i 12 -a 2 -x {1.0 5.0 11 ------- null}
- -t 0.14609 -s 2 -d 3 -p cbr -e 210 -c 2 -i 12 -a 2 -x {1.0 5.0 11 ------- null}
h -t 0.14609 -s 2 -d 3 -p cbr -e 210 -c 2 -i 12 -a 2 -x {1.0 5.0 -1 ------- null}
r -t 0.14718 -s 2 -d 3 -p cbr -e 210 -c 2 -i 11 -a 2 -x {1.0 5.0 10 ------- null}
h -t 0.14718 -s 3 -d 6 -p cbr -e 210 -c 2 -i 11 -a 2 -x {1.0 5.0 10 ------- null}
+ -t 0.14832 -s 3 -d 6 -p tcp -e 40 -c 1 -i 0 -a 1 -x {0.0 4.0 0 ------- null}
- -t 0.14832 -s 3 -d 6 -p tcp -e 40 -c 1 -i 0 -a 1 -x {0.0 4.0 0 ------- null}
h -t 0.14832 -s 3 -d 6 -p tcp -e 40 -c 1 -i 0 -a 1 -x {0.0 4.0 -1 ------- null}
d -t 0.148324 -s 5 -d 6 -p tcp -e 40 -c 1 -i 0 -a 1 -x {0.0 4.0 0 ------- null}
+ -t 0.14875 -s 1 -d 2 -p cbr -e 210 -c 2 -i 14 -a 2 -x {1.0 5.0 13 ------- null}
- -t 0.14875 -s 1 -d 2 -p cbr -e 210 -c 2 -i 14 -a 2 -x {1.0 5.0 13 ------- null}
h -t 0.14875 -s 1 -d 2 -p cbr -e 210 -c 2 -i 14 -a 2 -x {1.0 5.0 -1 ------- null}
+ -t 0.14968 -s 3 -d 6 -p cbr -e 210 -c 2 -i 1 -a 2 -x {1.0 5.0 0 ------- null}
- -t 0.14968 -s 3 -d 6 -p cbr -e 210 -c 2 -i 1 -a 2 -x {1.0 5.0 0 ------- null}
h -t 0.14968 -s 3 -d 6 -p cbr -e 210 -c 2 -i 1 -a 2 -x {1.0 5.0 -1 ------- null}
d -t 0.149684 -s 4 -d 6 -p cbr -e 210 -c 2 -i 1 -a 2 -x {1.0 5.0 0 ------- null}
r -t 0.14984 -s 1 -d 2 -p cbr -e 210 -c 2 -i 13 -a 2 -x {1.0 5.0 12 ------- null}
+ -t 0.14984 -s 2 -d 3 -p cbr -e 210 -c 2 -i 13 -a 2 -x {1.0 5.0 12 ------- null}
- -t 0.14984 -s 2 -d 3 -p cbr -e 210 -c 2 -i 13 -a 2 -x {1.0 5.0 12 ------- null}
h -t 0.14984 -s 2 -d 3 -p cbr -e 210 -c 2 -i 13 -a 2 -x {1.0 5.0 -1 ------- null}
r -t 0.15093 -s 2 -d 3 -p cbr -e 210 -c 2 -i 12 -a 2 -x {1.0 5.0 11 ------- null}
h -t 0.15093 -s 3 -d 6 -p cbr -e 210 -c 2 -i 12 -a 2 -x {1.0 5.0 11 ------- null}
+ -t 0.1525 -s 1 -d 2 -p cbr -e 210 -c 2 -i 15 -a 2 -x {1.0 5.0 14 ------- null}
- -t 0.1525 -s 1 -d 2 -p cbr -e 210 -c 2 -i 15 -a 2 -x {1.0 5.0 14 ------- null}
h -t 0.1525 -s 1 -d 2 -p cbr -e 210 -c 2 -i 15 -a 2 -x {1.0 5.0 -1 ------- null}
+ -t 0.15343 -s 3 -d 6 -p cbr -e 210 -c 2 -i 2 -a 2 -x {1.0 5.0 1 ------- null}
- -t 0.15343 -s 3 -d 6 -p cbr -e 210 -c 2 -i 2 -a 2 -x {1.0 5.0 1 ------- null}
h -t 0.15343 -s 3 -d 6 -p cbr -e 210 -c 2 -i 2 -a 2 -x {1.0 5.0 -1 ------- null}
d -t 0.153434 -s 4 -d 6 -p cbr -e 210 -c 2 -i 2 -a 2 -x {1.0 5.0 1 ------- null}
r -t 0.15359 -s 1 -d 2 -p cbr -e 210 -c 2 -i 14 -a 2 -x {1.0 5.0 13 ------- null}
+ -t 0.15359 -s 2 -d 3 -p cbr -e 210 -c 2 -i 14 -a 2 -x {1.0 5.0 13 ------- null}
- -t 0.15359 -s 2 -d 3 -p cbr -e 210 -c 2 -i 14 -a 2 -x {1.0 5.0 13 ------- null}
h -t 0.15359 -s 2 -d 3 -p cbr -e 210 -c 2 -i 14 -a 2 -x {1.0 5.0 -1 ------- null}
r -t 0.15468 -s 2 -d 3 -p cbr -e 210 -c 2 -i 13 -a 2 -x {1.0 5.0 12 ------- null}
h -t 0.15468 -s 3 -d 6 -p cbr -e 210 -c 2 -i 13 -a 2 -x {1.0 5.0 12 ------- null}
+ -t 0.15625 -s 1 -d 2 -p cbr -e 210 -c 2 -i 16 -a 2 -x {1.0 5.0 15 ------- null}
- -t 0.15625 -s 1 -d 2 -p cbr -e 210 -c 2 -i 16 -a 2 -x {1.0 5.0 15 ------- null}
h -t 0.15625 -s 1 -d 2 -p cbr -e 210 -c 2 -i 16 -a 2 -x {1.0 5.0 -1 ------- null}
+ -t 0.15718 -s 3 -d 6 -p cbr -e 210 -c 2 -i 3 -a 2 -x {1.0 5.0 2 ------- null}
- -t 0.15718 -s 3 -d 6 -p cbr -e 210 -c 2 -i 3 -a 2 -x {1.0 5.0 2 ------- null}
h -t 0.15718 -s 3 -d 6 -p cbr -e 210 -c 2 -i 3 -a 2 -x {1.0 5.0 -1 ------- null}
d -t 0.157184 -s 4 -d 6 -p cbr -e 210 -c 2 -i 3 -a 2 -x {1.0 5.0 2 ------- null}
r -t 0.15734 -s 1 -d 2 -p cbr -e 210 -c 2 -i 15 -a 2 -x {1.0 5.0 14 ------- null}
+ -t 0.15734 -s 2 -d 3 -p cbr -e 210 -c 2 -i 15 -a 2 -x {1.0 5.0 14 ------- null}
- -t 0.15734 -s 2 -d 3 -p cbr -e 210 -c 2 -i 15 -a 2 -x {1.0 5.0 14 ------- null}
h -t 0.15734 -s 2 -d 3 -p cbr -e 210 -c 2 -i 15 -a 2 -x {1.0 5.0 -1 ------- null}
r -t 0.15843 -s 2 -d 3 -p cbr -e 210 -c 2 -i 14 -a 2 -x {1.0 5.0 13 ------- null}
h -t 0.15843 -s 3 -d 6 -p cbr -e 210 -c 2 -i 14 -a 2 -x {1.0 5.0 13 ------- null}
+ -t 0.16 -s 1 -d 2 -p cbr -e 210 -c 2 -i 17 -a 2 -x {1.0 5.0 16 ------- null}
- -t 0.16 -s 1 -d 2 -p cbr -e 210 -c 2 -i 17 -a 2 -x {1.0 5.0 16 ------- null}
h -t 0.16 -s 1 -d 2 -p cbr -e 210 -c 2 -i 17 -a 2 -x {1.0 5.0 -1 ------- null}
+ -t 0.16093 -s 3 -d 6 -p cbr -e 210 -c 2 -i 4 -a 2 -x {1.0 5.0 3 ------- null}
- -t 0.16093 -s 3 -d 6 -p cbr -e 210 -c 2 -i 4 -a 2 -x {1.0 5.0 3 ------- null}
h -t 0.16093 -s 3 -d 6 -p cbr -e 210 -c 2 -i 4 -a 2 -x {1.0 5.0 -1 ------- null}
d -t 0.160934 -s 4 -d 6 -p cbr -e 210 -c 2 -i 4 -a 2 -x {1.0 5.0 3 ------- null}
r -t 0.16109 -s 1 -d 2 -p cbr -e 210 -c 2 -i 16 -a 2 -x {1.0 5.0 15 ------- null}
+ -t 0.16109 -s 2 -d 3 -p cbr -e 210 -c 2 -i 16 -a 2 -x {1.0 5.0 15 ------- null}
- -t 0.16109 -s 2 -d 3 -p cbr -e 210 -c 2 -i 16 -a 2 -x {1.0 5.0 15 ------- null}
h -t 0.16109 -s 2 -d 3 -p cbr -e 210 -c 2 -i 16 -a 2 -x {1.0 5.0 -1 ------- null}
r -t 0.16218 -s 2 -d 3 -p cbr -e 210 -c 2 -i 15 -a 2 -x {1.0 5.0 14 ------- null}
h -t 0.16218 -s 3 -d 6 -p cbr -e 210 -c 2 -i 15 -a 2 -x {1.0 5.0 14 ------- null}
+ -t 0.16375 -s 1 -d 2 -p cbr -e 210 -c 2 -i 18 -a 2 -x {1.0 5.0 17 ------- null}
- -t 0.16375 -s 1 -d 2 -p cbr -e 210 -c 2 -i 18 -a 2 -x {1.0 5.0 17 ------- null}
h -t 0.16375 -s 1 -d 2 -p cbr -e 210 -c 2 -i 18 -a 2 -x {1.0 5.0 -1 ------- null}
+ -t 0.16468 -s 3 -d 6 -p cbr -e 210 -c 2 -i 5 -a 2 -x {1.0 5.0 4 ------- null}
- -t 0.16468 -s 3 -d 6 -p cbr -e 210 -c 2 -i 5 -a 2 -x {1.0 5.0 4 ------- null}
h -t 0.16468 -s 3 -d 6 -p cbr -e 210 -c 2 -i 5 -a 2 -x {1.0 5.0 -1 ------- null}
d -t 0.164684 -s 4 -d 6 -p cbr -e 210 -c 2 -i 5 -a 2 -x {1.0 5.0 4 ------- null}
r -t 0.16484 -s 1 -d 2 -p cbr -e 210 -c 2 -i 17 -a 2 -x {1.0 5.0 16 ------- null}
+ -t 0.16484 -s 2 -d 3 -p cbr -e 210 -c 2 -i 17 -a 2 -x {1.0 5.0 16 ------- null}
- -t 0.16484 -s 2 -d 3 -p cbr -e 210 -c 2 -i 17 -a 2 -x {1.0 5.0 16 ------- null}
h -t 0.16484 -s 2 -d 3 -p cbr -e 210 -c 2 -i 17 -a 2 -x {1.0 5.0 -1 ------- null}
r -t 0.16593 -s 2 -d 3 -p cbr -e 210 -c 2 -i 16 -a 2 -x {1.0 5.0 15 ------- null}
h -t 0.16593 -s 3 -d 6 -p cbr -e 210 -c 2 -i 16 -a 2 -x {1.0 5.0 15 ------- null}
+ -t 0.1675 -s 1 -d 2 -p cbr -e 210 -c 2 -i 19 -a 2 -x {1.0 5.0 18 ------- null}
- -t 0.1675 -s 1 -d 2 -p cbr -e 210 -c 2 -i 19 -a 2 -x {1.0 5.0 18 ------- null}
h -t 0.1675 -s 1 -d 2 -p cbr -e 210 -c 2 -i 19 -a 2 -x {1.0 5.0 -1 ------- null}
+ -t 0.16843 -s 3 -d 6 -p cbr -e 210 -c 2 -i 6 -a 2 -x {1.0 5.0 5 ------- null}
- -t 0.16843 -s 3 -d 6 -p cbr -e 210 -c 2 -i 6 -a 2 -x {1.0 5.0 5 ------- null}
h -t 0.16843 -s 3 -d 6 -p cbr -e 210 -c 2 -i 6 -a 2 -x {1.0 5.0 -1 ------- null}
d -t 0.168434 -s 4 -d 6 -p cbr -e 210 -c 2 -i 6 -a 2 -x {1.0 5.0 5 ------- null}
r -t 0.16859 -s 1 -d 2 -p cbr -e 210 -c 2 -i 18 -a 2 -x {1.0 5.0 17 ------- null}
+ -t 0.16859 -s 2 -d 3 -p cbr -e 210 -c 2 -i 18 -a 2 -x {1.0 5.0 17 ------- null}
- -t 0.16859 -s 2 -d 3 -p cbr -e 210 -c 2 -i 18 -a 2 -x {1.0 5.0 17 ------- null}
h -t 0.16859 -s 2 -d 3 -p cbr -e 210 -c 2 -i 18 -a 2 -x {1.0 5.0 -1 ------- null}
r -t 0.16968 -s 2 -d 3 -p cbr -e 210 -c 2 -i 17 -a 2 -x {1.0 5.0 16 ------- null}
h -t 0.16968 -s 3 -d 6 -p cbr -e 210 -c 2 -i 17 -a 2 -x {1.0 5.0 16 ------- null}
+ -t 0.17125 -s 1 -d 2 -p cbr -e 210 -c 2 -i 20 -a 2 -x {1.0 5.0 19 ------- null}
- -t 0.17125 -s 1 -d 2 -p cbr -e 210 -c 2 -i 20 -a 2 -x {1.0 5.0 19 ------- null}
h -t 0.17125 -s 1 -d 2 -p cbr -e 210 -c 2 -i 20 -a 2 -x {1.0 5.0 -1 ------- null}
+ -t 0.17218 -s 3 -d 6 -p cbr -e 210 -c 2 -i 7 -a 2 -x {1.0 5.0 6 ------- null}
- -t 0.17218 -s 3 -d 6 -p cbr -e 210 -c 2 -i 7 -a 2 -x {1.0 5.0 6 ------- null}
h -t 0.17218 -s 3 -d 6 -p cbr -e 210 -c 2 -i 7 -a 2 -x {1.0 5.0 -1 ------- null}
d -t 0.172184 -s 4 -d 6 -p cbr -e 210 -c 2 -i 7 -a 2 -x {1.0 5.0 6 ------- null}
r -t 0.17234 -s 1 -d 2 -p cbr -e 210 -c 2 -i 19 -a 2 -x {1.0 5.0 18 ------- null}
+ -t 0.17234 -s 2 -d 3 -p cbr -e 210 -c 2 -i 19 -a 2 -x {1.0 5.0 18 ------- null}
- -t 0.17234 -s 2 -d 3 -p cbr -e 210 -c 2 -i 19 -a 2 -x {1.0 5.0 18 ------- null}
h -t 0.17234 -s 2 -d 3 -p cbr -e 210 -c 2 -i 19 -a 2 -x {1.0 5.0 -1 ------- null}
r -t 0.17343 -s 2 -d 3 -p cbr -e 210 -c 2 -i 18 -a 2 -x {1.0 5.0 17 ------- null}
h -t 0.17343 -s 3 -d 6 -p cbr -e 210 -c 2 -i 18 -a 2 -x {1.0 5.0 17 ------- null}
+ -t 0.175 -s 1 -d 2 -p cbr -e 210 -c 2 -i 21 -a 2 -x {1.0 5.0 20 ------- null}
- -t 0.175 -s 1 -d 2 -p cbr -e 210 -c 2 -i 21 -a 2 -x {1.0 5.0 20 ------- null}
h -t 0.175 -s 1 -d 2 -p cbr -e 210 -c 2 -i 21 -a 2 -x {1.0 5.0 -1 ------- null}
+ -t 0.17593 -s 3 -d 6 -p cbr -e 210 -c 2 -i 8 -a 2 -x {1.0 5.0 7 ------- null}
- -t 0.17593 -s 3 -d 6 -p cbr -e 210 -c 2 -i 8 -a 2 -x {1.0 5.0 7 ------- null}
h -t 0.17593 -s 3 -d 6 -p cbr -e 210 -c 2 -i 8 -a 2 -x {1.0 5.0 -1 ------- null}
d -t 0.175934 -s 4 -d 6 -p cbr -e 210 -c 2 -i 8 -a 2 -x {1.0 5.0 7 ------- null}
r -t 0.17609 -s 1 -d 2 -p cbr -e 210 -c 2 -i 20 -a 2 -x {1.0 5.0 19 ------- null}
+ -t 0.17609 -s 2 -d 3 -p cbr -e 210 -c 2 -i 20 -a 2 -x {1.0 5.0 19 ------- null}
- -t 0.17609 -s 2 -d 3 -p cbr -e 210 -c 2 -i 20 -a 2 -x {1.0 5.0 19 ------- null}
h -t 0.17609 -s 2 -d 3 -p cbr -e 210 -c 2 -i 20 -a 2 -x {1.0 5.0 -1 ------- null}
r -t 0.17718 -s 2 -d 3 -p cbr -e 210 -c 2 -i 19 -a 2 -x {1.0 5.0 18 ------- null}
h -t 0.17718 -s 3 -d 6 -p cbr -e 210 -c 2 -i 19 -a 2 -x {1.0 5.0 18 ------- null}
+ -t 0.17875 -s 1 -d 2 -p cbr -e 210 -c 2 -i 22 -a 2 -x {1.0 5.0 21 ------- null}
- -t 0.17875 -s 1 -d 2 -p cbr -e 210 -c 2 -i 22 -a 2 -x {1.0 5.0 21 ------- null}
h -t 0.17875 -s 1 -d 2 -p cbr -e 210 -c 2 -i 22 -a 2 -x {1.0 5.0 -1 ------- null}
+ -t 0.17968 -s 3 -d 6 -p cbr -e 210 -c 2 -i 9 -a 2 -x {1.0 5.0 8 ------- null}
- -t 0.17968 -s 3 -d 6 -p cbr -e 210 -c 2 -i 9 -a 2 -x {1.0 5.0 8 ------- null}
h -t 0.17968 -s 3 -d 6 -p cbr -e 210 -c 2 -i 9 -a 2 -x {1.0 5.0 -1 ------- null}
d -t 0.179684 -s 4 -d 6 -p cbr -e 210 -c 2 -i 9 -a 2 -x {1.0 5.0 8 ------- null}
r -t 0.17984 -s 1 -d 2 -p cbr -e 210 -c 2 -i 21 -a 2 -x {1.0 5.0 20 ------- null}
+ -t 0.17984 -s 2 -d 3 -p cbr -e 210 -c 2 -i 21 -a 2 -x {1.0 5.0 20 ------- null}
- -t 0.17984 -s 2 -d 3 -p cbr -e 210 -c 2 -i 21 -a 2 -x {1.0 5.0 20 ------- null}
h -t 0.17984 -s 2 -d 3 -p cbr -e 210 -c 2 -i 21 -a 2 -x {1.0 5.0 -1 ------- null}
r -t 0.18093 -s 2 -d 3 -p cbr -e 210 -c 2 -i 20 -a 2 -x {1.0 5.0 19 ------- null}
h -t 0.18093 -s 3 -d 6 -p cbr -e 210 -c 2 -i 20 -a 2 -x {1.0 5.0 19 ------- null}
+ -t 0.1825 -s 1 -d 2 -p cbr -e 210 -c 2 -i 23 -a 2 -x {1.0 5.0 22 ------- null}
- -t 0.1825 -s 1 -d 2 -p cbr -e 210 -c 2 -i 23 -a 2 -x {1.0 5.0 22 ------- null}
h -t 0.1825 -s 1 -d 2 -p cbr -e 210 -c 2 -i 23 -a 2 -x {1.0 5.0 -1 ------- null}
+ -t 0.18343 -s 3 -d 6 -p cbr -e 210 -c 2 -i 10 -a 2 -x {1.0 5.0 9 ------- null}
- -t 0.18343 -s 3 -d 6 -p cbr -e 210 -c 2 -i 10 -a 2 -x {1.0 5.0 9 ------- null}
h -t 0.18343 -s 3 -d 6 -p cbr -e 210 -c 2 -i 10 -a 2 -x {1.0 5.0 -1 ------- null}
d -t 0.183434 -s 4 -d 6 -p cbr -e 210 -c 2 -i 10 -a 2 -x {1.0 5.0 9 ------- null}
r -t 0.18359 -s 1 -d 2 -p cbr -e 210 -c 2 -i 22 -a 2 -x {1.0 5.0 21 ------- null}
+ -t 0.18359 -s 2 -d 3 -p cbr -e 210 -c 2 -i 22 -a 2 -x {1.0 5.0 21 ------- null}
- -t 0.18359 -s 2 -d 3 -p cbr -e 210 -c 2 -i 22 -a 2 -x {1.0 5.0 21 ------- null}
h -t 0.18359 -s 2 -d 3 -p cbr -e 210 -c 2 -i 22 -a 2 -x {1.0 5.0 -1 ------- null}
r -t 0.18468 -s 2 -d 3 -p cbr -e 210 -c 2 -i 21 -a 2 -x {1.0 5.0 20 ------- null}
h -t 0.18468 -s 3 -d 6 -p cbr -e 210 -c 2 -i 21 -a 2 -x {1.0 5.0 20 ------- null}
+ -t 0.18625 -s 1 -d 2 -p cbr -e 210 -c 2 -i 24 -a 2 -x {1.0 5.0 23 ------- null}
- -t 0.18625 -s 1 -d 2 -p cbr -e 210 -c 2 -i 24 -a 2 -x {1.0 5.0 23 ------- null}
h -t 0.18625 -s 1 -d 2 -p cbr -e 210 -c 2 -i 24 -a 2 -x {1.0 5.0 -1 ------- null}
+ -t 0.18718 -s 3 -d 6 -p cbr -e 210 -c 2 -i 11 -a 2 -x {1.0 5.0 10 ------- null}
- -t 0.18718 -s 3 -d 6 -p cbr -e 210 -c 2 -i 11 -a 2 -x {1.0 5.0 10 ------- null}
h -t 0.18718 -s 3 -d 6 -p cbr -e 210 -c 2 -i 11 -a 2 -x {1.0 5.0 -1 ------- null}
d -t 0.187184 -s 4 -d 6 -p cbr -e 210 -c 2 -i 11 -a 2 -x {1.0 5.0 10 ------- null}
r -t 0.18734 -s 1 -d 2 -p cbr -e 210 -c 2 -i 23 -a 2 -x {1.0 5.0 22 ------- null}
+ -t 0.18734 -s 2 -d 3 -p cbr -e 210 -c 2 -i 23 -a 2 -x {1.0 5.0 22 ------- null}
- -t 0.18734 -s 2 -d 3 -p cbr -e 210 -c 2 -i 23 -a 2 -x {1.0 5.0 22 ------- null}
h -t 0.18734 -s 2 -d 3 -p cbr -e 210 -c 2 -i 23 -a 2 -x {1.0 5.0 -1 ------- null}
r -t 0.188324 -s 6 -d 4 -p tcp -e 40 -c 1 -i 0 -a 1 -x {0.0 4.0 0 ------- null}
h -t 0.188324 -s 4 -d 6 -p ack -e 40 -c 1 -i 25 -a 1 -x {4.0 0.0 0 ------- null}
r -t 0.18843 -s 2 -d 3 -p cbr -e 210 -c 2 -i 22 -a 2 -x {1.0 5.0 21 ------- null}
h -t 0.18843 -s 3 -d 6 -p cbr -e 210 -c 2 -i 22 -a 2 -x {1.0 5.0 21 ------- null}
r -t 0.189684 -s 6 -d 5 -p cbr -e 210 -c 2 -i 1 -a 2 -x {1.0 5.0 0 ------- null}
+ -t 0.19 -s 1 -d 2 -p cbr -e 210 -c 2 -i 26 -a 2 -x {1.0 5.0 24 ------- null}
- -t 0.19 -s 1 -d 2 -p cbr -e 210 -c 2 -i 26 -a 2 -x {1.0 5.0 24 ------- null}
h -t 0.19 -s 1 -d 2 -p cbr -e 210 -c 2 -i 26 -a 2 -x {1.0 5.0 -1 ------- null}
+ -t 0.19093 -s 3 -d 6 -p cbr -e 210 -c 2 -i 12 -a 2 -x {1.0 5.0 11 ------- null}
- -t 0.19093 -s 3 -d 6 -p cbr -e 210 -c 2 -i 12 -a 2 -x {1.0 5.0 11 ------- null}
h -t 0.19093 -s 3 -d 6 -p cbr -e 210 -c 2 -i 12 -a 2 -x {1.0 5.0 -1 ------- null}
d -t 0.190934 -s 4 -d 6 -p cbr -e 210 -c 2 -i 12 -a 2 -x {1.0 5.0 11 ------- null}
r -t 0.19109 -s 1 -d 2 -p cbr -e 210 -c 2 -i 24 -a 2 -x {1.0 5.0 23 ------- null}
+ -t 0.19109 -s 2 -d 3 -p cbr -e 210 -c 2 -i 24 -a 2 -x {1.0 5.0 23 ------- null}
- -t 0.19109 -s 2 -d 3 -p cbr -e 210 -c 2 -i 24 -a 2 -x {1.0 5.0 23 ------- null}
h -t 0.19109 -s 2 -d 3 -p cbr -e 210 -c 2 -i 24 -a 2 -x {1.0 5.0 -1 ------- null}
r -t 0.19218 -s 2 -d 3 -p cbr -e 210 -c 2 -i 23 -a 2 -x {1.0 5.0 22 ------- null}
h -t 0.19218 -s 3 -d 6 -p cbr -e 210 -c 2 -i 23 -a 2 -x {1.0 5.0 22 ------- null}
r -t 0.193434 -s 6 -d 5 -p cbr -e 210 -c 2 -i 2 -a 2 -x {1.0 5.0 1 ------- null}
+ -t 0.19375 -s 1 -d 2 -p cbr -e 210 -c 2 -i 27 -a 2 -x {1.0 5.0 25 ------- null}
- -t 0.19375 -s 1 -d 2 -p cbr -e 210 -c 2 -i 27 -a 2 -x {1.0 5.0 25 ------- null}
h -t 0.19375 -s 1 -d 2 -p cbr -e 210 -c 2 -i 27 -a 2 -x {1.0 5.0 -1 ------- null}
+ -t 0.19468 -s 3 -d 6 -p cbr -e 210 -c 2 -i 13 -a 2 -x {1.0 5.0 12 ------- null}
- -t 0.19468 -s 3 -d 6 -p cbr -e 210 -c 2 -i 13 -a 2 -x {1.0 5.0 12 ------- null}
h -t 0.19468 -s 3 -d 6 -p cbr -e 210 -c 2 -i 13 -a 2 -x {1.0 5.0 -1 ------- null}
d -t 0.194684 -s 4 -d 6 -p cbr -e 210 -c 2 -i 13 -a 2 -x {1.0 5.0 12 ------- null}
r -t 0.19484 -s 1 -d 2 -p cbr -e 210 -c 2 -i 26 -a 2 -x {1.0 5.0 24 ------- null}
+ -t 0.19484 -s 2 -d 3 -p cbr -e 210 -c 2 -i 26 -a 2 -x {1.0 5.0 24 ------- null}
- -t 0.19484 -s 2 -d 3 -p cbr -e 210 -c 2 -i 26 -a 2 -x {1.0 5.0 24 ------- null}
h -t 0.19484 -s 2 -d 3 -p cbr -e 210 -c 2 -i 26 -a 2 -x {1.0 5.0 -1 ------- null}
r -t 0.19593 -s 2 -d 3 -p cbr -e 210 -c 2 -i 24 -a 2 -x {1.0 5.0 23 ------- null}
h -t 0.19593 -s 3 -d 6 -p cbr -e 210 -c 2 -i 24 -a 2 -x {1.0 5.0 23 ------- null}
r -t 0.197184 -s 6 -d 5 -p cbr -e 210 -c 2 -i 3 -a 2 -x {1.0 5.0 2 ------- null}
+ -t 0.1975 -s 1 -d 2 -p cbr -e 210 -c 2 -i 28 -a 2 -x {1.0 5.0 26 ------- null}
- -t 0.1975 -s 1 -d 2 -p cbr -e 210 -c 2 -i 28 -a 2 -x {1.0 5.0 26 ------- null}
h -t 0.1975 -s 1 -d 2 -p cbr -e 210 -c 2 -i 28 -a 2 -x {1.0 5.0 -1 ------- null}
+ -t 0.19843 -s 3 -d 6 -p cbr -e 210 -c 2 -i 14 -a 2 -x {1.0 5.0 13 ------- null}
- -t 0.19843 -s 3 -d 6 -p cbr -e 210 -c 2 -i 14 -a 2 -x {1.0 5.0 13 ------- null}
h -t 0.19843 -s 3 -d 6 -p cbr -e 210 -c 2 -i 14 -a 2 -x {1.0 5.0 -1 ------- null}
d -t 0.198434 -s 4 -d 6 -p cbr -e 210 -c 2 -i 14 -a 2 -x {1.0 5.0 13 ------- null}
r -t 0.19859 -s 1 -d 2 -p cbr -e 210 -c 2 -i 27 -a 2 -x {1.0 5.0 25 ------- null}
+ -t 0.19859 -s 2 -d 3 -p cbr -e 210 -c 2 -i 27 -a 2 -x {1.0 5.0 25 ------- null}
- -t 0.19859 -s 2 -d 3 -p cbr -e 210 -c 2 -i 27 -a 2 -x {1.0 5.0 25 ------- null}
h -t 0.19859 -s 2 -d 3 -p cbr -e 210 -c 2 -i 27 -a 2 -x {1.0 5.0 -1 ------- null}
r -t 0.19968 -s 2 -d 3 -p cbr -e 210 -c 2 -i 26 -a 2 -x {1.0 5.0 24 ------- null}
h -t 0.19968 -s 3 -d 6 -p cbr -e 210 -c 2 -i 26 -a 2 -x {1.0 5.0 24 ------- null}
r -t 0.200934 -s 6 -d 5 -p cbr -e 210 -c 2 -i 4 -a 2 -x {1.0 5.0 3 ------- null}
+ -t 0.20125 -s 1 -d 2 -p cbr -e 210 -c 2 -i 29 -a 2 -x {1.0 5.0 27 ------- null}
- -t 0.20125 -s 1 -d 2 -p cbr -e 210 -c 2 -i 29 -a 2 -x {1.0 5.0 27 ------- null}
h -t 0.20125 -s 1 -d 2 -p cbr -e 210 -c 2 -i 29 -a 2 -x {1.0 5.0 -1 ------- null}
+ -t 0.20218 -s 3 -d 6 -p cbr -e 210 -c 2 -i 15 -a 2 -x {1.0 5.0 14 ------- null}
- -t 0.20218 -s 3 -d 6 -p cbr -e 210 -c 2 -i 15 -a 2 -x {1.0 5.0 14 ------- null}
h -t 0.20218 -s 3 -d 6 -p cbr -e 210 -c 2 -i 15 -a 2 -x {1.0 5.0 -1 ------- null}
d -t 0.202184 -s 4 -d 6 -p cbr -e 210 -c 2 -i 15 -a 2 -x {1.0 5.0 14 ------- null}
r -t 0.20234 -s 1 -d 2 -p cbr -e 210 -c 2 -i 28 -a 2 -x {1.0 5.0 26 ------- null}
+ -t 0.20234 -s 2 -d 3 -p cbr -e 210 -c 2 -i 28 -a 2 -x {1.0 5.0 26 ------- null}
- -t 0.20234 -s 2 -d 3 -p cbr -e 210 -c 2 -i 28 -a 2 -x {1.0 5.0 26 ------- null}
h -t 0.20234 -s 2 -d 3 -p cbr -e 210 -c 2 -i 28 -a 2 -x {1.0 5.0 -1 ------- null}
r -t 0.20343 -s 2 -d 3 -p cbr -e 210 -c 2 -i 27 -a 2 -x {1.0 5.0 25 ------- null}
h -t 0.20343 -s 3 -d 6 -p cbr -e 210 -c 2 -i 27 -a 2 -x {1.0 5.0 25 ------- null}
r -t 0.204684 -s 6 -d 5 -p cbr -e 210 -c 2 -i 5 -a 2 -x {1.0 5.0 4 ------- null}
+ -t 0.205 -s 1 -d 2 -p cbr -e 210 -c 2 -i 30 -a 2 -x {1.0 5.0 28 ------- null}
- -t 0.205 -s 1 -d 2 -p cbr -e 210 -c 2 -i 30 -a 2 -x {1.0 5.0 28 ------- null}
h -t 0.205 -s 1 -d 2 -p cbr -e 210 -c 2 -i 30 -a 2 -x {1.0 5.0 -1 ------- null}
+ -t 0.20593 -s 3 -d 6 -p cbr -e 210 -c 2 -i 16 -a 2 -x {1.0 5.0 15 ------- null}
- -t 0.20593 -s 3 -d 6 -p cbr -e 210 -c 2 -i 16 -a 2 -x {1.0 5.0 15 ------- null}
h -t 0.20593 -s 3 -d 6 -p cbr -e 210 -c 2 -i 16 -a 2 -x {1.0 5.0 -1 ------- null}
d -t 0.205934 -s 4 -d 6 -p cbr -e 210 -c 2 -i 16 -a 2 -x {1.0 5.0 15 ------- null}
r -t 0.20609 -s 1 -d 2 -p cbr -e 210 -c 2 -i 29 -a 2 -x {1.0 5.0 27 ------- null}
+ -t 0.20609 -s 2 -d 3 -p cbr -e 210 -c 2 -i 29 -a 2 -x {1.0 5.0 27 ------- null}
- -t 0.20609 -s 2 -d 3 -p cbr -e 210 -c 2 -i 29 -a 2 -x {1.0 5.0 27 ------- null}
h -t 0.20609 -s 2 -d 3 -p cbr -e 210 -c 2 -i 29 -a 2 -x {1.0 5.0 -1 ------- null}
r -t 0.20718 -s 2 -d 3 -p cbr -e 210 -c 2 -i 28 -a 2 -x {1.0 5.0 26 ------- null}
h -t 0.20718 -s 3 -d 6 -p cbr -e 210 -c 2 -i 28 -a 2 -x {1.0 5.0 26 ------- null}
r -t 0.208434 -s 6 -d 5 -p cbr -e 210 -c 2 -i 6 -a 2 -x {1.0 5.0 5 ------- null}
+ -t 0.20875 -s 1 -d 2 -p cbr -e 210 -c 2 -i 31 -a 2 -x {1.0 5.0 29 ------- null}
- -t 0.20875 -s 1 -d 2 -p cbr -e 210 -c 2 -i 31 -a 2 -x {1.0 5.0 29 ------- null}
h -t 0.20875 -s 1 -d 2 -p cbr -e 210 -c 2 -i 31 -a 2 -x {1.0 5.0 -1 ------- null}
+ -t 0.20968 -s 3 -d 6 -p cbr -e 210 -c 2 -i 17 -a 2 -x {1.0 5.0 16 ------- null}
- -t 0.20968 -s 3 -d 6 -p cbr -e 210 -c 2 -i 17 -a 2 -x {1.0 5.0 16 ------- null}
h -t 0.20968 -s 3 -d 6 -p cbr -e 210 -c 2 -i 17 -a 2 -x {1.0 5.0 -1 ------- null}
d -t 0.209684 -s 4 -d 6 -p cbr -e 210 -c 2 -i 17 -a 2 -x {1.0 5.0 16 ------- null}
r -t 0.20984 -s 1 -d 2 -p cbr -e 210 -c 2 -i 30 -a 2 -x {1.0 5.0 28 ------- null}
+ -t 0.20984 -s 2 -d 3 -p cbr -e 210 -c 2 -i 30 -a 2 -x {1.0 5.0 28 ------- null}
- -t 0.20984 -s 2 -d 3 -p cbr -e 210 -c 2 -i 30 -a 2 -x {1.0 5.0 28 ------- null}
h -t 0.20984 -s 2 -d 3 -p cbr -e 210 -c 2 -i 30 -a 2 -x {1.0 5.0 -1 ------- null}
r -t 0.21093 -s 2 -d 3 -p cbr -e 210 -c 2 -i 29 -a 2 -x {1.0 5.0 27 ------- null}
h -t 0.21093 -s 3 -d 6 -p cbr -e 210 -c 2 -i 29 -a 2 -x {1.0 5.0 27 ------- null}
r -t 0.212184 -s 6 -d 5 -p cbr -e 210 -c 2 -i 7 -a 2 -x {1.0 5.0 6 ------- null}
+ -t 0.2125 -s 1 -d 2 -p cbr -e 210 -c 2 -i 32 -a 2 -x {1.0 5.0 30 ------- null}
- -t 0.2125 -s 1 -d 2 -p cbr -e 210 -c 2 -i 32 -a 2 -x {1.0 5.0 30 ------- null}
h -t 0.2125 -s 1 -d 2 -p cbr -e 210 -c 2 -i 32 -a 2 -x {1.0 5.0 -1 ------- null}
+ -t 0.21343 -s 3 -d 6 -p cbr -e 210 -c 2 -i 18 -a 2 -x {1.0 5.0 17 ------- null}
- -t 0.21343 -s 3 -d 6 -p cbr -e 210 -c 2 -i 18 -a 2 -x {1.0 5.0 17 ------- null}
h -t 0.21343 -s 3 -d 6 -p cbr -e 210 -c 2 -i 18 -a 2 -x {1.0 5.0 -1 ------- null}
d -t 0.213434 -s 4 -d 6 -p cbr -e 210 -c 2 -i 18 -a 2 -x {1.0 5.0 17 ------- null}