V -t * -v 1.0a5 -a 0
A -t * -n 1 -p 0 -o 0x7fffffff -c 30 -a 1
A -t * -h 1 -m 1073741823 -s 0
c -t * -i 1 -n Red
c -t * -i 2 -n Green
n -t * -a 0 -s 0 -S UP -v circle -c green -i green
n -t * -a 1 -s 1 -S UP -v circle -c red -i red
n -t * -a 2 -s 2 -S UP -v circle -c blue -i blue
l -t * -s 0 -d 2 -S UP -r 1000000 -D 0.0080000000000000002 -c black -o down-right
l -t * -s 1 -d 2 -S UP -r 1000000 -D 0.0080000000000000002 -c black -o down-left
+ -t 0.1 -s 0 -d 2 -p tcp -e 40 -c 2 -i 0 -a 2 -x {0.0 2.0 0 ------- null}
- -t 0.1 -s 0 -d 2 -p tcp -e 40 -c 2 -i 0 -a 2 -x {0.0 2.0 0 ------- null}
h -t 0.1 -s 0 -d 2 -p tcp -e 40 -c 2 -i 0 -a 2 -x {0.0 2.0 -1 ------- null}
+ -t 0.1 -s 1 -d 2 -p tcp -e 40 -c 1 -i 1 -a 1 -x {1.0 2.1 0 ------- null}
- -t 0.1 -s 1 -d 2 -p tcp -e 40 -c 1 -i 1 -a 1 -x {1.0 2.1 0 ------- null}
h -t 0.1 -s 1 -d 2 -p tcp -e 40 -c 1 -i 1 -a 1 -x {1.0 2.1 -1 ------- null}
r -t 0.10832 -s 0 -d 2 -p tcp -e 40 -c 2 -i 0 -a 2 -x {0.0 2.0 0 ------- null}
+ -t 0.10832 -s 2 -d 0 -p ack -e 40 -c 2 -i 2 -a 2 -x {2.0 0.0 0 ------- null}
- -t 0.10832 -s 2 -d 0 -p ack -e 40 -c 2 -i 2 -a 2 -x {2.0 0.0 0 ------- null}
h -t 0.10832 -s 2 -d 0 -p ack -e 40 -c 2 -i 2 -a 2 -x {2.0 0.0 -1 ------- null}
r -t 0.10832 -s 1 -d 2 -p tcp -e 40 -c 1 -i 1 -a 1 -x {1.0 2.1 0 ------- null}
+ -t 0.10832 -s 2 -d 1 -p ack -e 40 -c 1 -i 3 -a 1 -x {2.1 1.0 0 ------- null}
- -t 0.10832 -s 2 -d 1 -p ack -e 40 -c 1 -i 3 -a 1 -x {2.1 1.0 0 ------- null}
h -t 0.10832 -s 2 -d 1 -p ack -e 40 -c 1 -i 3 -a 1 -x {2.1 1.0 -1 ------- null}
r -t 0.11664 -s 2 -d 0 -p ack -e 40 -c 2 -i 2 -a 2 -x {2.0 0.0 0 ------- null}
+ -t 0.11664 -s 0 -d 2 -p tcp -e 1040 -c 2 -i 4 -a 2 -x {0.0 2.0 1 ------- null}
- -t 0.11664 -s 0 -d 2 -p tcp -e 1040 -c 2 -i 4 -a 2 -x {0.0 2.0 1 ------- null}
h -t 0.11664 -s 0 -d 2 -p tcp -e 1040 -c 2 -i 4 -a 2 -x {0.0 2.0 -1 ------- null}
+ -t 0.11664 -s 0 -d 2 -p tcp -e 1040 -c 2 -i 5 -a 2 -x {0.0 2.0 2 ------- null}
r -t 0.11664 -s 2 -d 1 -p ack -e 40 -c 1 -i 3 -a 1 -x {2.1 1.0 0 ------- null}
+ -t 0.11664 -s 1 -d 2 -p tcp -e 1040 -c 1 -i 6 -a 1 -x {1.0 2.1 1 ------- null}
- -t 0.11664 -s 1 -d 2 -p tcp -e 1040 -c 1 -i 6 -a 1 -x {1.0 2.1 1 ------- null}
h -t 0.11664 -s 1 -d 2 -p tcp -e 1040 -c 1 -i 6 -a 1 -x {1.0 2.1 -1 ------- null}
+ -t 0.11664 -s 1 -d 2 -p tcp -e 1040 -c 1 -i 7 -a 1 -x {1.0 2.1 2 ------- null}
- -t 0.12496 -s 0 -d 2 -p tcp -e 1040 -c 2 -i 5 -a 2 -x {0.0 2.0 2 ------- null}
h -t 0.12496 -s 0 -d 2 -p tcp -e 1040 -c 2 -i 5 -a 2 -x {0.0 2.0 -1 ------- null}
- -t 0.12496 -s 1 -d 2 -p tcp -e 1040 -c 1 -i 7 -a 1 -x {1.0 2.1 2 ------- null}
h -t 0.12496 -s 1 -d 2 -p tcp -e 1040 -c 1 -i 7 -a 1 -x {1.0 2.1 -1 ------- null}
r -t 0.13296 -s 0 -d 2 -p tcp -e 1040 -c 2 -i 4 -a 2 -x {0.0 2.0 1 ------- null}
+ -t 0.13296 -s 2 -d 0 -p ack -e 40 -c 2 -i 8 -a 2 -x {2.0 0.0 1 ------- null}
- -t 0.13296 -s 2 -d 0 -p ack -e 40 -c 2 -i 8 -a 2 -x {2.0 0.0 1 ------- null}
h -t 0.13296 -s 2 -d 0 -p ack -e 40 -c 2 -i 8 -a 2 -x {2.0 0.0 -1 ------- null}
r -t 0.13296 -s 1 -d 2 -p tcp -e 1040 -c 1 -i 6 -a 1 -x {1.0 2.1 1 ------- null}
+ -t 0.13296 -s 2 -d 1 -p ack -e 40 -c 1 -i 9 -a 1 -x {2.1 1.0 1 ------- null}
- -t 0.13296 -s 2 -d 1 -p ack -e 40 -c 1 -i 9 -a 1 -x {2.1 1.0 1 ------- null}
h -t 0.13296 -s 2 -d 1 -p ack -e 40 -c 1 -i 9 -a 1 -x {2.1 1.0 -1 ------- null}
r -t 0.14128 -s 0 -d 2 -p tcp -e 1040 -c 2 -i 5 -a 2 -x {0.0 2.0 2 ------- null}
+ -t 0.14128 -s 2 -d 0 -p ack -e 40 -c 2 -i 10 -a 2 -x {2.0 0.0 2 ------- null}
- -t 0.14128 -s 2 -d 0 -p ack -e 40 -c 2 -i 10 -a 2 -x {2.0 0.0 2 ------- null}
h -t 0.14128 -s 2 -d 0 -p ack -e 40 -c 2 -i 10 -a 2 -x {2.0 0.0 -1 ------- null}
r -t 0.14128 -s 1 -d 2 -p tcp -e 1040 -c 1 -i 7 -a 1 -x {1.0 2.1 2 ------- null}
+ -t 0.14128 -s 2 -d 1 -p ack -e 40 -c 1 -i 11 -a 1 -x {2.1 1.0 2 ------- null}
- -t 0.14128 -s 2 -d 1 -p ack -e 40 -c 1 -i 11 -a 1 -x {2.1 1.0 2 ------- null}
h -t 0.14128 -s 2 -d 1 -p ack -e 40 -c 1 -i 11 -a 1 -x {2.1 1.0 -1 ------- null}
r -t 0.14128 -s 2 -d 0 -p ack -e 40 -c 2 -i 8 -a 2 -x {2.0 0.0 1 ------- null}
+ -t 0.14128 -s 0 -d 2 -p tcp -e 1040 -c 2 -i 12 -a 2 -x {0.0 2.0 3 ------- null}
- -t 0.14128 -s 0 -d 2 -p tcp -e 1040 -c 2 -i 12 -a 2 -x {0.0 2.0 3 ------- null}
h -t 0.14128 -s 0 -d 2 -p tcp -e 1040 -c 2 -i 12 -a 2 -x {0.0 2.0 -1 ------- null}
+ -t 0.14128 -s 0 -d 2 -p tcp -e 1040 -c 2 -i 13 -a 2 -x {0.0 2.0 4 ------- null}
r -t 0.14128 -s 2 -d 1 -p ack -e 40 -c 1 -i 9 -a 1 -x {2.1 1.0 1 ------- null}
+ -t 0.14128 -s 1 -d 2 -p tcp -e 1040 -c 1 -i 14 -a 1 -x {1.0 2.1 3 ------- null}
- -t 0.14128 -s 1 -d 2 -p tcp -e 1040 -c 1 -i 14 -a 1 -x {1.0 2.1 3 ------- null}
h -t 0.14128 -s 1 -d 2 -p tcp -e 1040 -c 1 -i 14 -a 1 -x {1.0 2.1 -1 ------- null}
+ -t 0.14128 -s 1 -d 2 -p tcp -e 1040 -c 1 -i 15 -a 1 -x {1.0 2.1 4 ------- null}
r -t 0.1496 -s 2 -d 0 -p ack -e 40 -c 2 -i 10 -a 2 -x {2.0 0.0 2 ------- null}
+ -t 0.1496 -s 0 -d 2 -p tcp -e 1040 -c 2 -i 16 -a 2 -x {0.0 2.0 5 ------- null}
+ -t 0.1496 -s 0 -d 2 -p tcp -e 1040 -c 2 -i 17 -a 2 -x {0.0 2.0 6 ------- null}
r -t 0.1496 -s 2 -d 1 -p ack -e 40 -c 1 -i 11 -a 1 -x {2.1 1.0 2 ------- null}
+ -t 0.1496 -s 1 -d 2 -p tcp -e 1040 -c 1 -i 18 -a 1 -x {1.0 2.1 5 ------- null}
+ -t 0.1496 -s 1 -d 2 -p tcp -e 1040 -c 1 -i 19 -a 1 -x {1.0 2.1 6 ------- null}
- -t 0.1496 -s 0 -d 2 -p tcp -e 1040 -c 2 -i 13 -a 2 -x {0.0 2.0 4 ------- null}
h -t 0.1496 -s 0 -d 2 -p tcp -e 1040 -c 2 -i 13 -a 2 -x {0.0 2.0 -1 ------- null}
- -t 0.1496 -s 1 -d 2 -p tcp -e 1040 -c 1 -i 15 -a 1 -x {1.0 2.1 4 ------- null}
h -t 0.1496 -s 1 -d 2 -p tcp -e 1040 -c 1 -i 15 -a 1 -x {1.0 2.1 -1 ------- null}
r -t 0.1576 -s 0 -d 2 -p tcp -e 1040 -c 2 -i 12 -a 2 -x {0.0 2.0 3 ------- null}
+ -t 0.1576 -s 2 -d 0 -p ack -e 40 -c 2 -i 20 -a 2 -x {2.0 0.0 3 ------- null}
- -t 0.1576 -s 2 -d 0 -p ack -e 40 -c 2 -i 20 -a 2 -x {2.0 0.0 3 ------- null}
h -t 0.1576 -s 2 -d 0 -p ack -e 40 -c 2 -i 20 -a 2 -x {2.0 0.0 -1 ------- null}
r -t 0.1576 -s 1 -d 2 -p tcp -e 1040 -c 1 -i 14 -a 1 -x {1.0 2.1 3 ------- null}
+ -t 0.1576 -s 2 -d 1 -p ack -e 40 -c 1 -i 21 -a 1 -x {2.1 1.0 3 ------- null}
- -t 0.1576 -s 2 -d 1 -p ack -e 40 -c 1 -i 21 -a 1 -x {2.1 1.0 3 ------- null}
h -t 0.1576 -s 2 -d 1 -p ack -e 40 -c 1 -i 21 -a 1 -x {2.1 1.0 -1 ------- null}
- -t 0.15792 -s 0 -d 2 -p tcp -e 1040 -c 2 -i 16 -a 2 -x {0.0 2.0 5 ------- null}
h -t 0.15792 -s 0 -d 2 -p tcp -e 1040 -c 2 -i 16 -a 2 -x {0.0 2.0 -1 ------- null}
- -t 0.15792 -s 1 -d 2 -p tcp -e 1040 -c 1 -i 18 -a 1 -x {1.0 2.1 5 ------- null}
h -t 0.15792 -s 1 -d 2 -p tcp -e 1040 -c 1 -i 18 -a 1 -x {1.0 2.1 -1 ------- null}
r -t 0.16592 -s 0 -d 2 -p tcp -e 1040 -c 2 -i 13 -a 2 -x {0.0 2.0 4 ------- null}
+ -t 0.16592 -s 2 -d 0 -p ack -e 40 -c 2 -i 22 -a 2 -x {2.0 0.0 4 ------- null}
- -t 0.16592 -s 2 -d 0 -p ack -e 40 -c 2 -i 22 -a 2 -x {2.0 0.0 4 ------- null}
h -t 0.16592 -s 2 -d 0 -p ack -e 40 -c 2 -i 22 -a 2 -x {2.0 0.0 -1 ------- null}
r -t 0.16592 -s 1 -d 2 -p tcp -e 1040 -c 1 -i 15 -a 1 -x {1.0 2.1 4 ------- null}
+ -t 0.16592 -s 2 -d 1 -p ack -e 40 -c 1 -i 23 -a 1 -x {2.1 1.0 4 ------- null}
- -t 0.16592 -s 2 -d 1 -p ack -e 40 -c 1 -i 23 -a 1 -x {2.1 1.0 4 ------- null}
h -t 0.16592 -s 2 -d 1 -p ack -e 40 -c 1 -i 23 -a 1 -x {2.1 1.0 -1 ------- null}
r -t 0.16592 -s 2 -d 0 -p ack -e 40 -c 2 -i 20 -a 2 -x {2.0 0.0 3 ------- null}
+ -t 0.16592 -s 0 -d 2 -p tcp -e 1040 -c 2 -i 24 -a 2 -x {0.0 2.0 7 ------- null}
+ -t 0.16592 -s 0 -d 2 -p tcp -e 1040 -c 2 -i 25 -a 2 -x {0.0 2.0 8 ------- null}
r -t 0.16592 -s 2 -d 1 -p ack -e 40 -c 1 -i 21 -a 1 -x {2.1 1.0 3 ------- null}
+ -t 0.16592 -s 1 -d 2 -p tcp -e 1040 -c 1 -i 26 -a 1 -x {1.0 2.1 7 ------- null}
+ -t 0.16592 -s 1 -d 2 -p tcp -e 1040 -c 1 -i 27 -a 1 -x {1.0 2.1 8 ------- null}
- -t 0.16624 -s 0 -d 2 -p tcp -e 1040 -c 2 -i 17 -a 2 -x {0.0 2.0 6 ------- null}
h -t 0.16624 -s 0 -d 2 -p tcp -e 1040 -c 2 -i 17 -a 2 -x {0.0 2.0 -1 ------- null}
- -t 0.16624 -s 1 -d 2 -p tcp -e 1040 -c 1 -i 19 -a 1 -x {1.0 2.1 6 ------- null}
h -t 0.16624 -s 1 -d 2 -p tcp -e 1040 -c 1 -i 19 -a 1 -x {1.0 2.1 -1 ------- null}
r -t 0.17424 -s 0 -d 2 -p tcp -e 1040 -c 2 -i 16 -a 2 -x {0.0 2.0 5 ------- null}
+ -t 0.17424 -s 2 -d 0 -p ack -e 40 -c 2 -i 28 -a 2 -x {2.0 0.0 5 ------- null}
- -t 0.17424 -s 2 -d 0 -p ack -e 40 -c 2 -i 28 -a 2 -x {2.0 0.0 5 ------- null}
h -t 0.17424 -s 2 -d 0 -p ack -e 40 -c 2 -i 28 -a 2 -x {2.0 0.0 -1 ------- null}
r -t 0.17424 -s 1 -d 2 -p tcp -e 1040 -c 1 -i 18 -a 1 -x {1.0 2.1 5 ------- null}
+ -t 0.17424 -s 2 -d 1 -p ack -e 40 -c 1 -i 29 -a 1 -x {2.1 1.0 5 ------- null}
- -t 0.17424 -s 2 -d 1 -p ack -e 40 -c 1 -i 29 -a 1 -x {2.1 1.0 5 ------- null}
h -t 0.17424 -s 2 -d 1 -p ack -e 40 -c 1 -i 29 -a 1 -x {2.1 1.0 -1 ------- null}
r -t 0.17424 -s 2 -d 0 -p ack -e 40 -c 2 -i 22 -a 2 -x {2.0 0.0 4 ------- null}
+ -t 0.17424 -s 0 -d 2 -p tcp -e 1040 -c 2 -i 30 -a 2 -x {0.0 2.0 9 ------- null}
+ -t 0.17424 -s 0 -d 2 -p tcp -e 1040 -c 2 -i 31 -a 2 -x {0.0 2.0 10 ------- null}
r -t 0.17424 -s 2 -d 1 -p ack -e 40 -c 1 -i 23 -a 1 -x {2.1 1.0 4 ------- null}
+ -t 0.17424 -s 1 -d 2 -p tcp -e 1040 -c 1 -i 32 -a 1 -x {1.0 2.1 9 ------- null}
+ -t 0.17424 -s 1 -d 2 -p tcp -e 1040 -c 1 -i 33 -a 1 -x {1.0 2.1 10 ------- null}
- -t 0.17456 -s 0 -d 2 -p tcp -e 1040 -c 2 -i 24 -a 2 -x {0.0 2.0 7 ------- null}
h -t 0.17456 -s 0 -d 2 -p tcp -e 1040 -c 2 -i 24 -a 2 -x {0.0 2.0 -1 ------- null}
- -t 0.17456 -s 1 -d 2 -p tcp -e 1040 -c 1 -i 26 -a 1 -x {1.0 2.1 7 ------- null}
h -t 0.17456 -s 1 -d 2 -p tcp -e 1040 -c 1 -i 26 -a 1 -x {1.0 2.1 -1 ------- null}
r -t 0.18256 -s 0 -d 2 -p tcp -e 1040 -c 2 -i 17 -a 2 -x {0.0 2.0 6 ------- null}
+ -t 0.18256 -s 2 -d 0 -p ack -e 40 -c 2 -i 34 -a 2 -x {2.0 0.0 6 ------- null}
- -t 0.18256 -s 2 -d 0 -p ack -e 40 -c 2 -i 34 -a 2 -x {2.0 0.0 6 ------- null}
h -t 0.18256 -s 2 -d 0 -p ack -e 40 -c 2 -i 34 -a 2 -x {2.0 0.0 -1 ------- null}
r -t 0.18256 -s 1 -d 2 -p tcp -e 1040 -c 1 -i 19 -a 1 -x {1.0 2.1 6 ------- null}
+ -t 0.18256 -s 2 -d 1 -p ack -e 40 -c 1 -i 35 -a 1 -x {2.1 1.0 6 ------- null}
- -t 0.18256 -s 2 -d 1 -p ack -e 40 -c 1 -i 35 -a 1 -x {2.1 1.0 6 ------- null}
h -t 0.18256 -s 2 -d 1 -p ack -e 40 -c 1 -i 35 -a 1 -x {2.1 1.0 -1 ------- null}
r -t 0.18256 -s 2 -d 0 -p ack -e 40 -c 2 -i 28 -a 2 -x {2.0 0.0 5 ------- null}
+ -t 0.18256 -s 0 -d 2 -p tcp -e 1040 -c 2 -i 36 -a 2 -x {0.0 2.0 11 ------- null}
+ -t 0.18256 -s 0 -d 2 -p tcp -e 1040 -c 2 -i 37 -a 2 -x {0.0 2.0 12 ------- null}
d -t 0.18256 -s 0 -d 2 -p tcp -e 1040 -c 2 -i 37 -a 2 -x {0.0 2.0 12 ------- null}
r -t 0.18256 -s 2 -d 1 -p ack -e 40 -c 1 -i 29 -a 1 -x {2.1 1.0 5 ------- null}
+ -t 0.18256 -s 1 -d 2 -p tcp -e 1040 -c 1 -i 38 -a 1 -x {1.0 2.1 11 ------- null}
+ -t 0.18256 -s 1 -d 2 -p tcp -e 1040 -c 1 -i 39 -a 1 -x {1.0 2.1 12 ------- null}
d -t 0.18256 -s 1 -d 2 -p tcp -e 1040 -c 1 -i 39 -a 1 -x {1.0 2.1 12 ------- null}
- -t 0.18288 -s 0 -d 2 -p tcp -e 1040 -c 2 -i 25 -a 2 -x {0.0 2.0 8 ------- null}
h -t 0.18288 -s 0 -d 2 -p tcp -e 1040 -c 2 -i 25 -a 2 -x {0.0 2.0 -1 ------- null}
- -t 0.18288 -s 1 -d 2 -p tcp -e 1040 -c 1 -i 27 -a 1 -x {1.0 2.1 8 ------- null}
h -t 0.18288 -s 1 -d 2 -p tcp -e 1040 -c 1 -i 27 -a 1 -x {1.0 2.1 -1 ------- null}
r -t 0.19088 -s 0 -d 2 -p tcp -e 1040 -c 2 -i 24 -a 2 -x {0.0 2.0 7 ------- null}
+ -t 0.19088 -s 2 -d 0 -p ack -e 40 -c 2 -i 40 -a 2 -x {2.0 0.0 7 ------- null}
- -t 0.19088 -s 2 -d 0 -p ack -e 40 -c 2 -i 40 -a 2 -x {2.0 0.0 7 ------- null}
h -t 0.19088 -s 2 -d 0 -p ack -e 40 -c 2 -i 40 -a 2 -x {2.0 0.0 -1 ------- null}
r -t 0.19088 -s 1 -d 2 -p tcp -e 1040 -c 1 -i 26 -a 1 -x {1.0 2.1 7 ------- null}
+ -t 0.19088 -s 2 -d 1 -p ack -e 40 -c 1 -i 41 -a 1 -x {2.1 1.0 7 ------- null}
- -t 0.19088 -s 2 -d 1 -p ack -e 40 -c 1 -i 41 -a 1 -x {2.1 1.0 7 ------- null}
h -t 0.19088 -s 2 -d 1 -p ack -e 40 -c 1 -i 41 -a 1 -x {2.1 1.0 -1 ------- null}
r -t 0.19088 -s 2 -d 0 -p ack -e 40 -c 2 -i 34 -a 2 -x {2.0 0.0 6 ------- null}
+ -t 0.19088 -s 0 -d 2 -p tcp -e 1040 -c 2 -i 42 -a 2 -x {0.0 2.0 13 ------- null}
+ -t 0.19088 -s 0 -d 2 -p tcp -e 1040 -c 2 -i 43 -a 2 -x {0.0 2.0 14 ------- null}
d -t 0.19088 -s 0 -d 2 -p tcp -e 1040 -c 2 -i 43 -a 2 -x {0.0 2.0 14 ------- null}
r -t 0.19088 -s 2 -d 1 -p ack -e 40 -c 1 -i 35 -a 1 -x {2.1 1.0 6 ------- null}
+ -t 0.19088 -s 1 -d 2 -p tcp -e 1040 -c 1 -i 44 -a 1 -x {1.0 2.1 13 ------- null}
+ -t 0.19088 -s 1 -d 2 -p tcp -e 1040 -c 1 -i 45 -a 1 -x {1.0 2.1 14 ------- null}
d -t 0.19088 -s 1 -d 2 -p tcp -e 1040 -c 1 -i 45 -a 1 -x {1.0 2.1 14 ------- null}
- -t 0.1912 -s 0 -d 2 -p tcp -e 1040 -c 2 -i 30 -a 2 -x {0.0 2.0 9 ------- null}
h -t 0.1912 -s 0 -d 2 -p tcp -e 1040 -c 2 -i 30 -a 2 -x {0.0 2.0 -1 ------- null}
- -t 0.1912 -s 1 -d 2 -p tcp -e 1040 -c 1 -i 32 -a 1 -x {1.0 2.1 9 ------- null}
h -t 0.1912 -s 1 -d 2 -p tcp -e 1040 -c 1 -i 32 -a 1 -x {1.0 2.1 -1 ------- null}
r -t 0.1992 -s 0 -d 2 -p tcp -e 1040 -c 2 -i 25 -a 2 -x {0.0 2.0 8 ------- null}
+ -t 0.1992 -s 2 -d 0 -p ack -e 40 -c 2 -i 46 -a 2 -x {2.0 0.0 8 ------- null}
- -t 0.1992 -s 2 -d 0 -p ack -e 40 -c 2 -i 46 -a 2 -x {2.0 0.0 8 ------- null}
h -t 0.1992 -s 2 -d 0 -p ack -e 40 -c 2 -i 46 -a 2 -x {2.0 0.0 -1 ------- null}
r -t 0.1992 -s 1 -d 2 -p tcp -e 1040 -c 1 -i 27 -a 1 -x {1.0 2.1 8 ------- null}
+ -t 0.1992 -s 2 -d 1 -p ack -e 40 -c 1 -i 47 -a 1 -x {2.1 1.0 8 ------- null}
- -t 0.1992 -s 2 -d 1 -p ack -e 40 -c 1 -i 47 -a 1 -x {2.1 1.0 8 ------- null}
h -t 0.1992 -s 2 -d 1 -p ack -e 40 -c 1 -i 47 -a 1 -x {2.1 1.0 -1 ------- null}
r -t 0.1992 -s 2 -d 0 -p ack -e 40 -c 2 -i 40 -a 2 -x {2.0 0.0 7 ------- null}
+ -t 0.1992 -s 0 -d 2 -p tcp -e 1040 -c 2 -i 48 -a 2 -x {0.0 2.0 15 ------- null}
+ -t 0.1992 -s 0 -d 2 -p tcp -e 1040 -c 2 -i 49 -a 2 -x {0.0 2.0 16 ------- null}
d -t 0.1992 -s 0 -d 2 -p tcp -e 1040 -c 2 -i 49 -a 2 -x {0.0 2.0 16 ------- null}
r -t 0.1992 -s 2 -d 1 -p ack -e 40 -c 1 -i 41 -a 1 -x {2.1 1.0 7 ------- null}
+ -t 0.1992 -s 1 -d 2 -p tcp -e 1040 -c 1 -i 50 -a 1 -x {1.0 2.1 15 ------- null}
+ -t 0.1992 -s 1 -d 2 -p tcp -e 1040 -c 1 -i 51 -a 1 -x {1.0 2.1 16 ------- null}
d -t 0.1992 -s 1 -d 2 -p tcp -e 1040 -c 1 -i 51 -a 1 -x {1.0 2.1 16 ------- null}
- -t 0.19952 -s 0 -d 2 -p tcp -e 1040 -c 2 -i 31 -a 2 -x {0.0 2.0 10 ------- null}
h -t 0.19952 -s 0 -d 2 -p tcp -e 1040 -c 2 -i 31 -a 2 -x {0.0 2.0 -1 ------- null}
- -t 0.19952 -s 1 -d 2 -p tcp -e 1040 -c 1 -i 33 -a 1 -x {1.0 2.1 10 ------- null}
h -t 0.19952 -s 1 -d 2 -p tcp -e 1040 -c 1 -i 33 -a 1 -x {1.0 2.1 -1 ------- null}
r -t 0.20752 -s 0 -d 2 -p tcp -e 1040 -c 2 -i 30 -a 2 -x {0.0 2.0 9 ------- null}
+ -t 0.20752 -s 2 -d 0 -p ack -e 40 -c 2 -i 52 -a 2 -x {2.0 0.0 9 ------- null}
- -t 0.20752 -s 2 -d 0 -p ack -e 40 -c 2 -i 52 -a 2 -x {2.0 0.0 9 ------- null}
h -t 0.20752 -s 2 -d 0 -p ack -e 40 -c 2 -i 52 -a 2 -x {2.0 0.0 -1 ------- null}
r -t 0.20752 -s 1 -d 2 -p tcp -e 1040 -c 1 -i 32 -a 1 -x {1.0 2.1 9 ------- null}
+ -t 0.20752 -s 2 -d 1 -p ack -e 40 -c 1 -i 53 -a 1 -x {2.1 1.0 9 ------- null}
- -t 0.20752 -s 2 -d 1 -p ack -e 40 -c 1 -i 53 -a 1 -x {2.1 1.0 9 ------- null}
h -t 0.20752 -s 2 -d 1 -p ack -e 40 -c 1 -i 53 -a 1 -x {2.1 1.0 -1 ------- null}
r -t 0.20752 -s 2 -d 0 -p ack -e 40 -c 2 -i 46 -a 2 -x {2.0 0.0 8 ------- null}
+ -t 0.20752 -s 0 -d 2 -p tcp -e 1040 -c 2 -i 54 -a 2 -x {0.0 2.0 17 ------- null}
+ -t 0.20752 -s 0 -d 2 -p tcp -e 1040 -c 2 -i 55 -a 2 -x {0.0 2.0 18 ------- null}
d -t 0.20752 -s 0 -d 2 -p tcp -e 1040 -c 2 -i 55 -a 2 -x {0.0 2.0 18 ------- null}
r -t 0.20752 -s 2 -d 1 -p ack -e 40 -c 1 -i 47 -a 1 -x {2.1 1.0 8 ------- null}
+ -t 0.20752 -s 1 -d 2 -p tcp -e 1040 -c 1 -i 56 -a 1 -x {1.0 2.1 17 ------- null}
+ -t 0.20752 -s 1 -d 2 -p tcp -e 1040 -c 1 -i 57 -a 1 -x {1.0 2.1 18 ------- null}
d -t 0.20752 -s 1 -d 2 -p tcp -e 1040 -c 1 -i 57 -a 1 -x {1.0 2.1 18 ------- null}
- -t 0.20784 -s 0 -d 2 -p tcp -e 1040 -c 2 -i 36 -a 2 -x {0.0 2.0 11 ------- null}
h -t 0.20784 -s 0 -d 2 -p tcp -e 1040 -c 2 -i 36 -a 2 -x {0.0 2.0 -1 ------- null}
- -t 0.20784 -s 1 -d 2 -p tcp -e 1040 -c 1 -i 38 -a 1 -x {1.0 2.1 11 ------- null}
h -t 0.20784 -s 1 -d 2 -p tcp -e 1040 -c 1 -i 38 -a 1 -x {1.0 2.1 -1 ------- null}
r -t 0.21584 -s 0 -d 2 -p tcp -e 1040 -c 2 -i 31 -a 2 -x {0.0 2.0 10 ------- null}
+ -t 0.21584 -s 2 -d 0 -p ack -e 40 -c 2 -i 58 -a 2 -x {2.0 0.0 10 ------- null}
- -t 0.21584 -s 2 -d 0 -p ack -e 40 -c 2 -i 58 -a 2 -x {2.0 0.0 10 ------- null}
h -t 0.21584 -s 2 -d 0 -p ack -e 40 -c 2 -i 58 -a 2 -x {2.0 0.0 -1 ------- null}
r -t 0.21584 -s 1 -d 2 -p tcp -e 1040 -c 1 -i 33 -a 1 -x {1.0 2.1 10 ------- null}
+ -t 0.21584 -s 2 -d 1 -p ack -e 40 -c 1 -i 59 -a 1 -x {2.1 1.0 10 ------- null}
- -t 0.21584 -s 2 -d 1 -p ack -e 40 -c 1 -i 59 -a 1 -x {2.1 1.0 10 ------- null}
h -t 0.21584 -s 2 -d 1 -p ack -e 40 -c 1 -i 59 -a 1 -x {2.1 1.0 -1 ------- null}
r -t 0.21584 -s 2 -d 0 -p ack -e 40 -c 2 -i 52 -a 2 -x {2.0 0.0 9 ------- null}
+ -t 0.21584 -s 0 -d 2 -p tcp -e 1040 -c 2 -i 60 -a 2 -x {0.0 2.0 19 ------- null}
+ -t 0.21584 -s 0 -d 2 -p tcp -e 1040 -c 2 -i 61 -a 2 -x {0.0 2.0 20 ------- null}
d -t 0.21584 -s 0 -d 2 -p tcp -e 1040 -c 2 -i 61 -a 2 -x {0.0 2.0 20 ------- null}
r -t 0.21584 -s 2 -d 1 -p ack -e 40 -c 1 -i 53 -a 1 -x {2.1 1.0 9 ------- null}
+ -t 0.21584 -s 1 -d 2 -p tcp -e 1040 -c 1 -i 62 -a 1 -x {1.0 2.1 19 ------- null}
+ -t 0.21584 -s 1 -d 2 -p tcp -e 1040 -c 1 -i 63 -a 1 -x {1.0 2.1 20 ------- null}
d -t 0.21584 -s 1 -d 2 -p tcp -e 1040 -c 1 -i 63 -a 1 -x {1.0 2.1 20 ------- null}
- -t 0.21616 -s 0 -d 2 -p tcp -e 1040 -c 2 -i 42 -a 2 -x {0.0 2.0 13 ------- null}
h -t 0.21616 -s 0 -d 2 -p tcp -e 1040 -c 2 -i 42 -a 2 -x {0.0 2.0 -1 ------- null}
- -t 0.21616 -s 1 -d 2 -p tcp -e 1040 -c 1 -i 44 -a 1 -x {1.0 2.1 13 ------- null}
h -t 0.21616 -s 1 -d 2 -p tcp -e 1040 -c 1 -i 44 -a 1 -x {1.0 2.1 -1 ------- null}
r -t 0.22416 -s 0 -d 2 -p tcp -e 1040 -c 2 -i 36 -a 2 -x {0.0 2.0 11 ------- null}
+ -t 0.22416 -s 2 -d 0 -p ack -e 40 -c 2 -i 64 -a 2 -x {2.0 0.0 11 ------- null}
- -t 0.22416 -s 2 -d 0 -p ack -e 40 -c 2 -i 64 -a 2 -x {2.0 0.0 11 ------- null}
h -t 0.22416 -s 2 -d 0 -p ack -e 40 -c 2 -i 64 -a 2 -x {2.0 0.0 -1 ------- null}
r -t 0.22416 -s 1 -d 2 -p tcp -e 1040 -c 1 -i 38 -a 1 -x {1.0 2.1 11 ------- null}
+ -t 0.22416 -s 2 -d 1 -p ack -e 40 -c 1 -i 65 -a 1 -x {2.1 1.0 11 ------- null}
- -t 0.22416 -s 2 -d 1 -p ack -e 40 -c 1 -i 65 -a 1 -x {2.1 1.0 11 ------- null}
h -t 0.22416 -s 2 -d 1 -p ack -e 40 -c 1 -i 65 -a 1 -x {2.1 1.0 -1 ------- null}
r -t 0.22416 -s 2 -d 0 -p ack -e 40 -c 2 -i 58 -a 2 -x {2.0 0.0 10 ------- null}
+ -t 0.22416 -s 0 -d 2 -p tcp -e 1040 -c 2 -i 66 -a 2 -x {0.0 2.0 21 ------- null}
+ -t 0.22416 -s 0 -d 2 -p tcp -e 1040 -c 2 -i 67 -a 2 -x {0.0 2.0 22 ------- null}
d -t 0.22416 -s 0 -d 2 -p tcp -e 1040 -c 2 -i 67 -a 2 -x {0.0 2.0 22 ------- null}
r -t 0.22416 -s 2 -d 1 -p ack -e 40 -c 1 -i 59 -a 1 -x {2.1 1.0 10 ------- null}
+ -t 0.22416 -s 1 -d 2 -p tcp -e 1040 -c 1 -i 68 -a 1 -x {1.0 2.1 21 ------- null}
+ -t 0.22416 -s 1 -d 2 -p tcp -e 1040 -c 1 -i 69 -a 1 -x {1.0 2.1 22 ------- null}
d -t 0.22416 -s 1 -d 2 -p tcp -e 1040 -c 1 -i 69 -a 1 -x {1.0 2.1 22 ------- null}
- -t 0.22448 -s 0 -d 2 -p tcp -e 1040 -c 2 -i 48 -a 2 -x {0.0 2.0 15 ------- null}
h -t 0.22448 -s 0 -d 2 -p tcp -e 1040 -c 2 -i 48 -a 2 -x {0.0 2.0 -1 ------- null}
- -t 0.22448 -s 1 -d 2 -p tcp -e 1040 -c 1 -i 50 -a 1 -x {1.0 2.1 15 ------- null}
h -t 0.22448 -s 1 -d 2 -p tcp -e 1040 -c 1 -i 50 -a 1 -x {1.0 2.1 -1 ------- null}
r -t 0.23248 -s 0 -d 2 -p tcp -e 1040 -c 2 -i 42 -a 2 -x {0.0 2.0 13 ------- null}
+ -t 0.23248 -s 2 -d 0 -p ack -e 40 -c 2 -i 70 -a 2 -x {2.0 0.0 11 ------- null}
- -t 0.23248 -s 2 -d 0 -p ack -e 40 -c 2 -i 70 -a 2 -x {2.0 0.0 11 ------- null}
h -t 0.23248 -s 2 -d 0 -p ack -e 40 -c 2 -i 70 -a 2 -x {2.0 0.0 -1 ------- null}
r -t 0.23248 -s 1 -d 2 -p tcp -e 1040 -c 1 -i 44 -a 1 -x {1.0 2.1 13 ------- null}
+ -t 0.23248 -s 2 -d 1 -p ack -e 40 -c 1 -i 71 -a 1 -x {2.1 1.0 11 ------- null}
- -t 0.23248 -s 2 -d 1 -p ack -e 40 -c 1 -i 71 -a 1 -x {2.1 1.0 11 ------- null}
h -t 0.23248 -s 2 -d 1 -p ack -e 40 -c 1 -i 71 -a 1 -x {2.1 1.0 -1 ------- null}
r -t 0.23248 -s 2 -d 0 -p ack -e 40 -c 2 -i 64 -a 2 -x {2.0 0.0 11 ------- null}
+ -t 0.23248 -s 0 -d 2 -p tcp -e 1040 -c 2 -i 72 -a 2 -x {0.0 2.0 23 ------- null}
+ -t 0.23248 -s 0 -d 2 -p tcp -e 1040 -c 2 -i 73 -a 2 -x {0.0 2.0 24 ------- null}
d -t 0.23248 -s 0 -d 2 -p tcp -e 1040 -c 2 -i 73 -a 2 -x {0.0 2.0 24 ------- null}
r -t 0.23248 -s 2 -d 1 -p ack -e 40 -c 1 -i 65 -a 1 -x {2.1 1.0 11 ------- null}
+ -t 0.23248 -s 1 -d 2 -p tcp -e 1040 -c 1 -i 74 -a 1 -x {1.0 2.1 23 ------- null}
+ -t 0.23248 -s 1 -d 2 -p tcp -e 1040 -c 1 -i 75 -a 1 -x {1.0 2.1 24 ------- null}
d -t 0.23248 -s 1 -d 2 -p tcp -e 1040 -c 1 -i 75 -a 1 -x {1.0 2.1 24 ------- null}
- -t 0.2328 -s 0 -d 2 -p tcp -e 1040 -c 2 -i 54 -a 2 -x {0.0 2.0 17 ------- null}
h -t 0.2328 -s 0 -d 2 -p tcp -e 1040 -c 2 -i 54 -a 2 -x {0.0 2.0 -1 ------- null}
- -t 0.2328 -s 1 -d 2 -p tcp -e 1040 -c 1 -i 56 -a 1 -x {1.0 2.1 17 ------- null}
h -t 0.2328 -s 1 -d 2 -p tcp -e 1040 -c 1 -i 56 -a 1 -x {1.0 2.1 -1 ------- null}
r -t 0.2408 -s 0 -d 2 -p tcp -e 1040 -c 2 -i 48 -a 2 -x {0.0 2.0 15 ------- null}
+ -t 0.2408 -s 2 -d 0 -p ack -e 40 -c 2 -i 76 -a 2 -x {2.0 0.0 11 ------- null}
- -t 0.2408 -s 2 -d 0 -p ack -e 40 -c 2 -i 76 -a 2 -x {2.0 0.0 11 ------- null}
h -t 0.2408 -s 2 -d 0 -p ack -e 40 -c 2 -i 76 -a 2 -x {2.0 0.0 -1 ------- null}
r -t 0.2408 -s 1 -d 2 -p tcp -e 1040 -c 1 -i 50 -a 1 -x {1.0 2.1 15 ------- null}
+ -t 0.2408 -s 2 -d 1 -p ack -e 40 -c 1 -i 77 -a 1 -x {2.1 1.0 11 ------- null}
- -t 0.2408 -s 2 -d 1 -p ack -e 40 -c 1 -i 77 -a 1 -x {2.1 1.0 11 ------- null}
h -t 0.2408 -s 2 -d 1 -p ack -e 40 -c 1 -i 77 -a 1 -x {2.1 1.0 -1 ------- null}
r -t 0.2408 -s 2 -d 0 -p ack -e 40 -c 2 -i 70 -a 2 -x {2.0 0.0 11 ------- null}
+ -t 0.2408 -s 0 -d 2 -p tcp -e 1040 -c 2 -i 78 -a 2 -x {0.0 2.0 25 ------- null}
r -t 0.2408 -s 2 -d 1 -p ack -e 40 -c 1 -i 71 -a 1 -x {2.1 1.0 11 ------- null}
+ -t 0.2408 -s 1 -d 2 -p tcp -e 1040 -c 1 -i 79 -a 1 -x {1.0 2.1 25 ------- null}
- -t 0.24112 -s 0 -d 2 -p tcp -e 1040 -c 2 -i 60 -a 2 -x {0.0 2.0 19 ------- null}
h -t 0.24112 -s 0 -d 2 -p tcp -e 1040 -c 2 -i 60 -a 2 -x {0.0 2.0 -1 ------- null}
- -t 0.24112 -s 1 -d 2 -p tcp -e 1040 -c 1 -i 62 -a 1 -x {1.0 2.1 19 ------- null}
h -t 0.24112 -s 1 -d 2 -p tcp -e 1040 -c 1 -i 62 -a 1 -x {1.0 2.1 -1 ------- null}
r -t 0.24912 -s 0 -d 2 -p tcp -e 1040 -c 2 -i 54 -a 2 -x {0.0 2.0 17 ------- null}
+ -t 0.24912 -s 2 -d 0 -p ack -e 40 -c 2 -i 80 -a 2 -x {2.0 0.0 11 ------- null}
- -t 0.24912 -s 2 -d 0 -p ack -e 40 -c 2 -i 80 -a 2 -x {2.0 0.0 11 ------- null}
h -t 0.24912 -s 2 -d 0 -p ack -e 40 -c 2 -i 80 -a 2 -x {2.0 0.0 -1 ------- null}
r -t 0.24912 -s 1 -d 2 -p tcp -e 1040 -c 1 -i 56 -a 1 -x {1.0 2.1 17 ------- null}
+ -t 0.24912 -s 2 -d 1 -p ack -e 40 -c 1 -i 81 -a 1 -x {2.1 1.0 11 ------- null}
- -t 0.24912 -s 2 -d 1 -p ack -e 40 -c 1 -i 81 -a 1 -x {2.1 1.0 11 ------- null}
h -t 0.24912 -s 2 -d 1 -p ack -e 40 -c 1 -i 81 -a 1 -x {2.1 1.0 -1 ------- null}
r -t 0.24912 -s 2 -d 0 -p ack -e 40 -c 2 -i 76 -a 2 -x {2.0 0.0 11 ------- null}
+ -t 0.24912 -s 0 -d 2 -p tcp -e 1040 -c 2 -i 82 -a 2 -x {0.0 2.0 26 ------- null}
r -t 0.24912 -s 2 -d 1 -p ack -e 40 -c 1 -i 77 -a 1 -x {2.1 1.0 11 ------- null}
+ -t 0.24912 -s 1 -d 2 -p tcp -e 1040 -c 1 -i 83 -a 1 -x {1.0 2.1 26 ------- null}
- -t 0.24944 -s 0 -d 2 -p tcp -e 1040 -c 2 -i 66 -a 2 -x {0.0 2.0 21 ------- null}
h -t 0.24944 -s 0 -d 2 -p tcp -e 1040 -c 2 -i 66 -a 2 -x {0.0 2.0 -1 ------- null}
- -t 0.24944 -s 1 -d 2 -p tcp -e 1040 -c 1 -i 68 -a 1 -x {1.0 2.1 21 ------- null}
h -t 0.24944 -s 1 -d 2 -p tcp -e 1040 -c 1 -i 68 -a 1 -x {1.0 2.1 -1 ------- null}
r -t 0.25744 -s 0 -d 2 -p tcp -e 1040 -c 2 -i 60 -a 2 -x {0.0 2.0 19 ------- null}
+ -t 0.25744 -s 2 -d 0 -p ack -e 40 -c 2 -i 84 -a 2 -x {2.0 0.0 11 ------- null}
- -t 0.25744 -s 2 -d 0 -p ack -e 40 -c 2 -i 84 -a 2 -x {2.0 0.0 11 ------- null}
h -t 0.25744 -s 2 -d 0 -p ack -e 40 -c 2 -i 84 -a 2 -x {2.0 0.0 -1 ------- null}
r -t 0.25744 -s 1 -d 2 -p tcp -e 1040 -c 1 -i 62 -a 1 -x {1.0 2.1 19 ------- null}
+ -t 0.25744 -s 2 -d 1 -p ack -e 40 -c 1 -i 85 -a 1 -x {2.1 1.0 11 ------- null}
- -t 0.25744 -s 2 -d 1 -p ack -e 40 -c 1 -i 85 -a 1 -x {2.1 1.0 11 ------- null}
h -t 0.25744 -s 2 -d 1 -p ack -e 40 -c 1 -i 85 -a 1 -x {2.1 1.0 -1 ------- null}
r -t 0.25744 -s 2 -d 0 -p ack -e 40 -c 2 -i 80 -a 2 -x {2.0 0.0 11 ------- null}
+ -t 0.25744 -s 0 -d 2 -p tcp -e 1040 -c 2 -i 86 -a 2 -x {0.0 2.0 12 ---A--- null}
r -t 0.25744 -s 2 -d 1 -p ack -e 40 -c 1 -i 81 -a 1 -x {2.1 1.0 11 ------- null}
+ -t 0.25744 -s 1 -d 2 -p tcp -e 1040 -c 1 -i 87 -a 1 -x {1.0 2.1 12 ---A--- null}
- -t 0.25776 -s 0 -d 2 -p tcp -e 1040 -c 2 -i 72 -a 2 -x {0.0 2.0 23 ------- null}
h -t 0.25776 -s 0 -d 2 -p tcp -e 1040 -c 2 -i 72 -a 2 -x {0.0 2.0 -1 ------- null}
- -t 0.25776 -s 1 -d 2 -p tcp -e 1040 -c 1 -i 74 -a 1 -x {1.0 2.1 23 ------- null}
h -t 0.25776 -s 1 -d 2 -p tcp -e 1040 -c 1 -i 74 -a 1 -x {1.0 2.1 -1 ------- null}
r -t 0.26576 -s 0 -d 2 -p tcp -e 1040 -c 2 -i 66 -a 2 -x {0.0 2.0 21 ------- null}
+ -t 0.26576 -s 2 -d 0 -p ack -e 40 -c 2 -i 88 -a 2 -x {2.0 0.0 11 ------- null}
- -t 0.26576 -s 2 -d 0 -p ack -e 40 -c 2 -i 88 -a 2 -x {2.0 0.0 11 ------- null}
h -t 0.26576 -s 2 -d 0 -p ack -e 40 -c 2 -i 88 -a 2 -x {2.0 0.0 -1 ------- null}
r -t 0.26576 -s 1 -d 2 -p tcp -e 1040 -c 1 -i 68 -a 1 -x {1.0 2.1 21 ------- null}
+ -t 0.26576 -s 2 -d 1 -p ack -e 40 -c 1 -i 89 -a 1 -x {2.1 1.0 11 ------- null}
- -t 0.26576 -s 2 -d 1 -p ack -e 40 -c 1 -i 89 -a 1 -x {2.1 1.0 11 ------- null}
h -t 0.26576 -s 2 -d 1 -p ack -e 40 -c 1 -i 89 -a 1 -x {2.1 1.0 -1 ------- null}
r -t 0.26576 -s 2 -d 0 -p ack -e 40 -c 2 -i 84 -a 2 -x {2.0 0.0 11 ------- null}
r -t 0.26576 -s 2 -d 1 -p ack -e 40 -c 1 -i 85 -a 1 -x {2.1 1.0 11 ------- null}
- -t 0.26608 -s 0 -d 2 -p tcp -e 1040 -c 2 -i 78 -a 2 -x {0.0 2.0 25 ------- null}
h -t 0.26608 -s 0 -d 2 -p tcp -e 1040 -c 2 -i 78 -a 2 -x {0.0 2.0 -1 ------- null}
- -t 0.26608 -s 1 -d 2 -p tcp -e 1040 -c 1 -i 79 -a 1 -x {1.0 2.1 25 ------- null}
h -t 0.26608 -s 1 -d 2 -p tcp -e 1040 -c 1 -i 79 -a 1 -x {1.0 2.1 -1 ------- null}
r -t 0.27408 -s 2 -d 0 -p ack -e 40 -c 2 -i 88 -a 2 -x {2.0 0.0 11 ------- null}
r -t 0.27408 -s 2 -d 1 -p ack -e 40 -c 1 -i 89 -a 1 -x {2.1 1.0 11 ------- null}
r -t 0.27408 -s 0 -d 2 -p tcp -e 1040 -c 2 -i 72 -a 2 -x {0.0 2.0 23 ------- null}
+ -t 0.27408 -s 2 -d 0 -p ack -e 40 -c 2 -i 90 -a 2 -x {2.0 0.0 11 ------- null}
- -t 0.27408 -s 2 -d 0 -p ack -e 40 -c 2 -i 90 -a 2 -x {2.0 0.0 11 ------- null}
h -t 0.27408 -s 2 -d 0 -p ack -e 40 -c 2 -i 90 -a 2 -x {2.0 0.0 -1 ------- null}
r -t 0.27408 -s 1 -d 2 -p tcp -e 1040 -c 1 -i 74 -a 1 -x {1.0 2.1 23 ------- null}
+ -t 0.27408 -s 2 -d 1 -p ack -e 40 -c 1 -i 91 -a 1 -x {2.1 1.0 11 ------- null}
- -t 0.27408 -s 2 -d 1 -p ack -e 40 -c 1 -i 91 -a 1 -x {2.1 1.0 11 ------- null}
h -t 0.27408 -s 2 -d 1 -p ack -e 40 -c 1 -i 91 -a 1 -x {2.1 1.0 -1 ------- null}
- -t 0.2744 -s 0 -d 2 -p tcp -e 1040 -c 2 -i 82 -a 2 -x {0.0 2.0 26 ------- null}
h -t 0.2744 -s 0 -d 2 -p tcp -e 1040 -c 2 -i 82 -a 2 -x {0.0 2.0 -1 ------- null}
- -t 0.2744 -s 1 -d 2 -p tcp -e 1040 -c 1 -i 83 -a 1 -x {1.0 2.1 26 ------- null}
h -t 0.2744 -s 1 -d 2 -p tcp -e 1040 -c 1 -i 83 -a 1 -x {1.0 2.1 -1 ------- null}
r -t 0.2824 -s 0 -d 2 -p tcp -e 1040 -c 2 -i 78 -a 2 -x {0.0 2.0 25 ------- null}
+ -t 0.2824 -s 2 -d 0 -p ack -e 40 -c 2 -i 92 -a 2 -x {2.0 0.0 11 ------- null}
- -t 0.2824 -s 2 -d 0 -p ack -e 40 -c 2 -i 92 -a 2 -x {2.0 0.0 11 ------- null}
h -t 0.2824 -s 2 -d 0 -p ack -e 40 -c 2 -i 92 -a 2 -x {2.0 0.0 -1 ------- null}
r -t 0.2824 -s 1 -d 2 -p tcp -e 1040 -c 1 -i 79 -a 1 -x {1.0 2.1 25 ------- null}
+ -t 0.2824 -s 2 -d 1 -p ack -e 40 -c 1 -i 93 -a 1 -x {2.1 1.0 11 ------- null}
- -t 0.2824 -s 2 -d 1 -p ack -e 40 -c 1 -i 93 -a 1 -x {2.1 1.0 11 ------- null}
h -t 0.2824 -s 2 -d 1 -p ack -e 40 -c 1 -i 93 -a 1 -x {2.1 1.0 -1 ------- null}
r -t 0.2824 -s 2 -d 0 -p ack -e 40 -c 2 -i 90 -a 2 -x {2.0 0.0 11 ------- null}
r -t 0.2824 -s 2 -d 1 -p ack -e 40 -c 1 -i 91 -a 1 -x {2.1 1.0 11 ------- null}
- -t 0.28272 -s 0 -d 2 -p tcp -e 1040 -c 2 -i 86 -a 2 -x {0.0 2.0 12 ---A--- null}
h -t 0.28272 -s 0 -d 2 -p tcp -e 1040 -c 2 -i 86 -a 2 -x {0.0 2.0 -1 ---A--- null}
- -t 0.28272 -s 1 -d 2 -p tcp -e 1040 -c 1 -i 87 -a 1 -x {1.0 2.1 12 ---A--- null}
h -t 0.28272 -s 1 -d 2 -p tcp -e 1040 -c 1 -i 87 -a 1 -x {1.0 2.1 -1 ---A--- null}
r -t 0.29072 -s 0 -d 2 -p tcp -e 1040 -c 2 -i 82 -a 2 -x {0.0 2.0 26 ------- null}
+ -t 0.29072 -s 2 -d 0 -p ack -e 40 -c 2 -i 94 -a 2 -x {2.0 0.0 11 ------- null}
- -t 0.29072 -s 2 -d 0 -p ack -e 40 -c 2 -i 94 -a 2 -x {2.0 0.0 11 ------- null}
h -t 0.29072 -s 2 -d 0 -p ack -e 40 -c 2 -i 94 -a 2 -x {2.0 0.0 -1 ------- null}
r -t 0.29072 -s 1 -d 2 -p tcp -e 1040 -c 1 -i 83 -a 1 -x {1.0 2.1 26 ------- null}
+ -t 0.29072 -s 2 -d 1 -p ack -e 40 -c 1 -i 95 -a 1 -x {2.1 1.0 11 ------- null}
- -t 0.29072 -s 2 -d 1 -p ack -e 40 -c 1 -i 95 -a 1 -x {2.1 1.0 11 ------- null}
h -t 0.29072 -s 2 -d 1 -p ack -e 40 -c 1 -i 95 -a 1 -x {2.1 1.0 -1 ------- null}
r -t 0.29072 -s 2 -d 0 -p ack -e 40 -c 2 -i 92 -a 2 -x {2.0 0.0 11 ------- null}
r -t 0.29072 -s 2 -d 1 -p ack -e 40 -c 1 -i 93 -a 1 -x {2.1 1.0 11 ------- null}
r -t 0.29904 -s 0 -d 2 -p tcp -e 1040 -c 2 -i 86 -a 2 -x {0.0 2.0 12 ---A--- null}
+ -t 0.29904 -s 2 -d 0 -p ack -e 40 -c 2 -i 96 -a 2 -x {2.0 0.0 13 ------- null}
- -t 0.29904 -s 2 -d 0 -p ack -e 40 -c 2 -i 96 -a 2 -x {2.0 0.0 13 ------- null}
h -t 0.29904 -s 2 -d 0 -p ack -e 40 -c 2 -i 96 -a 2 -x {2.0 0.0 -1 ------- null}
r -t 0.29904 -s 1 -d 2 -p tcp -e 1040 -c 1 -i 87 -a 1 -x {1.0 2.1 12 ---A--- null}
+ -t 0.29904 -s 2 -d 1 -p ack -e 40 -c 1 -i 97 -a 1 -x {2.1 1.0 13 ------- null}
- -t 0.29904 -s 2 -d 1 -p ack -e 40 -c 1 -i 97 -a 1 -x {2.1 1.0 13 ------- null}
h -t 0.29904 -s 2 -d 1 -p ack -e 40 -c 1 -i 97 -a 1 -x {2.1 1.0 -1 ------- null}
r -t 0.29904 -s 2 -d 0 -p ack -e 40 -c 2 -i 94 -a 2 -x {2.0 0.0 11 ------- null}
r -t 0.29904 -s 2 -d 1 -p ack -e 40 -c 1 -i 95 -a 1 -x {2.1 1.0 11 ------- null}
r -t 0.30736 -s 2 -d 0 -p ack -e 40 -c 2 -i 96 -a 2 -x {2.0 0.0 13 ------- null}