+ 0.1 0 2 tcp 40 ------- 1 0.0 3.0 0 0
- 0.1 0 2 tcp 40 ------- 1 0.0 3.0 0 0
+ 0.1 1 2 cbr 210 ------- 2 1.0 3.1 0 1
- 0.1 1 2 cbr 210 ------- 2 1.0 3.1 0 1
r 0.101032 0 2 tcp 40 ------- 1 0.0 3.0 0 0
+ 0.101032 2 3 tcp 40 ------- 1 0.0 3.0 0 0
- 0.101032 2 3 tcp 40 ------- 1 0.0 3.0 0 0
+ 0.10375 1 2 cbr 210 ------- 2 1.0 3.1 1 2
- 0.10375 1 2 cbr 210 ------- 2 1.0 3.1 1 2
+ 0.1075 1 2 cbr 210 ------- 2 1.0 3.1 2 3
- 0.1075 1 2 cbr 210 ------- 2 1.0 3.1 2 3
r 0.109352 2 3 tcp 40 ------- 1 0.0 3.0 0 0
+ 0.109352 3 2 ack 40 ------- 1 3.0 0.0 0 4
- 0.109352 3 2 ack 40 ------- 1 3.0 0.0 0 4
r 0.10968 1 2 cbr 210 ------- 2 1.0 3.1 0 1
+ 0.10968 2 3 cbr 210 ------- 2 1.0 3.1 0 1
- 0.10968 2 3 cbr 210 ------- 2 1.0 3.1 0 1
+ 0.11125 1 2 cbr 210 ------- 2 1.0 3.1 3 5
- 0.11125 1 2 cbr 210 ------- 2 1.0 3.1 3 5
r 0.11343 1 2 cbr 210 ------- 2 1.0 3.1 1 2
+ 0.11343 2 3 cbr 210 ------- 2 1.0 3.1 1 2
- 0.11343 2 3 cbr 210 ------- 2 1.0 3.1 1 2
+ 0.115 1 2 cbr 210 ------- 2 1.0 3.1 4 6
- 0.115 1 2 cbr 210 ------- 2 1.0 3.1 4 6
r 0.11718 1 2 cbr 210 ------- 2 1.0 3.1 2 3
+ 0.11718 2 3 cbr 210 ------- 2 1.0 3.1 2 3
- 0.11718 2 3 cbr 210 ------- 2 1.0 3.1 2 3
r 0.117672 3 2 ack 40 ------- 1 3.0 0.0 0 4
+ 0.117672 2 0 ack 40 ------- 1 3.0 0.0 0 4
- 0.117672 2 0 ack 40 ------- 1 3.0 0.0 0 4
r 0.118704 2 0 ack 40 ------- 1 3.0 0.0 0 4
+ 0.118704 0 2 tcp 1040 ------- 1 0.0 3.0 1 7
- 0.118704 0 2 tcp 1040 ------- 1 0.0 3.0 1 7
+ 0.118704 0 2 tcp 1040 ------- 1 0.0 3.0 2 8
+ 0.11875 1 2 cbr 210 ------- 2 1.0 3.1 5 9
- 0.11875 1 2 cbr 210 ------- 2 1.0 3.1 5 9
r 0.11936 2 3 cbr 210 ------- 2 1.0 3.1 0 1
- 0.119536 0 2 tcp 1040 ------- 1 0.0 3.0 2 8
r 0.120536 0 2 tcp 1040 ------- 1 0.0 3.0 1 7
+ 0.120536 2 3 tcp 1040 ------- 1 0.0 3.0 1 7
- 0.120536 2 3 tcp 1040 ------- 1 0.0 3.0 1 7
r 0.12093 1 2 cbr 210 ------- 2 1.0 3.1 3 5
+ 0.12093 2 3 cbr 210 ------- 2 1.0 3.1 3 5
r 0.121368 0 2 tcp 1040 ------- 1 0.0 3.0 2 8
+ 0.121368 2 3 tcp 1040 ------- 1 0.0 3.0 2 8
+ 0.1225 1 2 cbr 210 ------- 2 1.0 3.1 6 10
- 0.1225 1 2 cbr 210 ------- 2 1.0 3.1 6 10
r 0.12311 2 3 cbr 210 ------- 2 1.0 3.1 1 2
r 0.12468 1 2 cbr 210 ------- 2 1.0 3.1 4 6
+ 0.12468 2 3 cbr 210 ------- 2 1.0 3.1 4 6
+ 0.12625 1 2 cbr 210 ------- 2 1.0 3.1 7 11
- 0.12625 1 2 cbr 210 ------- 2 1.0 3.1 7 11
r 0.12686 2 3 cbr 210 ------- 2 1.0 3.1 2 3
r 0.12843 1 2 cbr 210 ------- 2 1.0 3.1 5 9
+ 0.12843 2 3 cbr 210 ------- 2 1.0 3.1 5 9
- 0.128856 2 3 cbr 210 ------- 2 1.0 3.1 3 5
+ 0.13 1 2 cbr 210 ------- 2 1.0 3.1 8 12
- 0.13 1 2 cbr 210 ------- 2 1.0 3.1 8 12
- 0.130536 2 3 tcp 1040 ------- 1 0.0 3.0 2 8
r 0.13218 1 2 cbr 210 ------- 2 1.0 3.1 6 10
+ 0.13218 2 3 cbr 210 ------- 2 1.0 3.1 6 10
+ 0.13375 1 2 cbr 210 ------- 2 1.0 3.1 9 13
- 0.13375 1 2 cbr 210 ------- 2 1.0 3.1 9 13
r 0.13593 1 2 cbr 210 ------- 2 1.0 3.1 7 11
+ 0.13593 2 3 cbr 210 ------- 2 1.0 3.1 7 11
r 0.136856 2 3 tcp 1040 ------- 1 0.0 3.0 1 7
+ 0.136856 3 2 ack 40 ------- 1 3.0 0.0 1 14
- 0.136856 3 2 ack 40 ------- 1 3.0 0.0 1 14
+ 0.1375 1 2 cbr 210 ------- 2 1.0 3.1 10 15
- 0.1375 1 2 cbr 210 ------- 2 1.0 3.1 10 15
r 0.138536 2 3 cbr 210 ------- 2 1.0 3.1 3 5
- 0.138856 2 3 cbr 210 ------- 2 1.0 3.1 4 6
r 0.13968 1 2 cbr 210 ------- 2 1.0 3.1 8 12
+ 0.13968 2 3 cbr 210 ------- 2 1.0 3.1 8 12
- 0.140536 2 3 cbr 210 ------- 2 1.0 3.1 5 9
+ 0.14125 1 2 cbr 210 ------- 2 1.0 3.1 11 16
- 0.14125 1 2 cbr 210 ------- 2 1.0 3.1 11 16
- 0.142216 2 3 cbr 210 ------- 2 1.0 3.1 6 10
r 0.14343 1 2 cbr 210 ------- 2 1.0 3.1 9 13
+ 0.14343 2 3 cbr 210 ------- 2 1.0 3.1 9 13
- 0.143896 2 3 cbr 210 ------- 2 1.0 3.1 7 11
+ 0.145 1 2 cbr 210 ------- 2 1.0 3.1 12 17
- 0.145 1 2 cbr 210 ------- 2 1.0 3.1 12 17
r 0.145176 3 2 ack 40 ------- 1 3.0 0.0 1 14
+ 0.145176 2 0 ack 40 ------- 1 3.0 0.0 1 14
- 0.145176 2 0 ack 40 ------- 1 3.0 0.0 1 14
- 0.145576 2 3 cbr 210 ------- 2 1.0 3.1 8 12
r 0.146208 2 0 ack 40 ------- 1 3.0 0.0 1 14
+ 0.146208 0 2 tcp 1040 ------- 1 0.0 3.0 3 18
- 0.146208 0 2 tcp 1040 ------- 1 0.0 3.0 3 18
+ 0.146208 0 2 tcp 1040 ------- 1 0.0 3.0 4 19
r 0.146856 2 3 tcp 1040 ------- 1 0.0 3.0 2 8
+ 0.146856 3 2 ack 40 ------- 1 3.0 0.0 2 20
- 0.146856 3 2 ack 40 ------- 1 3.0 0.0 2 20
- 0.14704 0 2 tcp 1040 ------- 1 0.0 3.0 4 19
r 0.14718 1 2 cbr 210 ------- 2 1.0 3.1 10 15
+ 0.14718 2 3 cbr 210 ------- 2 1.0 3.1 10 15
- 0.147256 2 3 cbr 210 ------- 2 1.0 3.1 9 13
r 0.14804 0 2 tcp 1040 ------- 1 0.0 3.0 3 18
+ 0.14804 2 3 tcp 1040 ------- 1 0.0 3.0 3 18
r 0.148536 2 3 cbr 210 ------- 2 1.0 3.1 4 6
+ 0.14875 1 2 cbr 210 ------- 2 1.0 3.1 13 21
- 0.14875 1 2 cbr 210 ------- 2 1.0 3.1 13 21
r 0.148872 0 2 tcp 1040 ------- 1 0.0 3.0 4 19
+ 0.148872 2 3 tcp 1040 ------- 1 0.0 3.0 4 19
- 0.148936 2 3 cbr 210 ------- 2 1.0 3.1 10 15
r 0.150216 2 3 cbr 210 ------- 2 1.0 3.1 5 9
- 0.150616 2 3 tcp 1040 ------- 1 0.0 3.0 3 18
r 0.15093 1 2 cbr 210 ------- 2 1.0 3.1 11 16
+ 0.15093 2 3 cbr 210 ------- 2 1.0 3.1 11 16
r 0.151896 2 3 cbr 210 ------- 2 1.0 3.1 6 10
+ 0.1525 1 2 cbr 210 ------- 2 1.0 3.1 14 22
- 0.1525 1 2 cbr 210 ------- 2 1.0 3.1 14 22
r 0.153576 2 3 cbr 210 ------- 2 1.0 3.1 7 11
r 0.15468 1 2 cbr 210 ------- 2 1.0 3.1 12 17
+ 0.15468 2 3 cbr 210 ------- 2 1.0 3.1 12 17
r 0.155176 3 2 ack 40 ------- 1 3.0 0.0 2 20
+ 0.155176 2 0 ack 40 ------- 1 3.0 0.0 2 20
- 0.155176 2 0 ack 40 ------- 1 3.0 0.0 2 20
r 0.155256 2 3 cbr 210 ------- 2 1.0 3.1 8 12
r 0.156208 2 0 ack 40 ------- 1 3.0 0.0 2 20
+ 0.156208 0 2 tcp 1040 ------- 1 0.0 3.0 5 23
- 0.156208 0 2 tcp 1040 ------- 1 0.0 3.0 5 23
+ 0.156208 0 2 tcp 1040 ------- 1 0.0 3.0 6 24
+ 0.15625 1 2 cbr 210 ------- 2 1.0 3.1 15 25
- 0.15625 1 2 cbr 210 ------- 2 1.0 3.1 15 25
r 0.156936 2 3 cbr 210 ------- 2 1.0 3.1 9 13
- 0.15704 0 2 tcp 1040 ------- 1 0.0 3.0 6 24
r 0.15804 0 2 tcp 1040 ------- 1 0.0 3.0 5 23
+ 0.15804 2 3 tcp 1040 ------- 1 0.0 3.0 5 23
r 0.15843 1 2 cbr 210 ------- 2 1.0 3.1 13 21
+ 0.15843 2 3 cbr 210 ------- 2 1.0 3.1 13 21
r 0.158616 2 3 cbr 210 ------- 2 1.0 3.1 10 15
r 0.158872 0 2 tcp 1040 ------- 1 0.0 3.0 6 24
+ 0.158872 2 3 tcp 1040 ------- 1 0.0 3.0 6 24
- 0.158936 2 3 tcp 1040 ------- 1 0.0 3.0 4 19
+ 0.16 1 2 cbr 210 ------- 2 1.0 3.1 16 26
- 0.16 1 2 cbr 210 ------- 2 1.0 3.1 16 26
r 0.16218 1 2 cbr 210 ------- 2 1.0 3.1 14 22
+ 0.16218 2 3 cbr 210 ------- 2 1.0 3.1 14 22
+ 0.16375 1 2 cbr 210 ------- 2 1.0 3.1 17 27
- 0.16375 1 2 cbr 210 ------- 2 1.0 3.1 17 27
r 0.16593 1 2 cbr 210 ------- 2 1.0 3.1 15 25
+ 0.16593 2 3 cbr 210 ------- 2 1.0 3.1 15 25
r 0.166936 2 3 tcp 1040 ------- 1 0.0 3.0 3 18
+ 0.166936 3 2 ack 40 ------- 1 3.0 0.0 3 28
- 0.166936 3 2 ack 40 ------- 1 3.0 0.0 3 28
- 0.167256 2 3 cbr 210 ------- 2 1.0 3.1 11 16
+ 0.1675 1 2 cbr 210 ------- 2 1.0 3.1 18 29
- 0.1675 1 2 cbr 210 ------- 2 1.0 3.1 18 29
- 0.168936 2 3 cbr 210 ------- 2 1.0 3.1 12 17
r 0.16968 1 2 cbr 210 ------- 2 1.0 3.1 16 26
+ 0.16968 2 3 cbr 210 ------- 2 1.0 3.1 16 26
- 0.170616 2 3 tcp 1040 ------- 1 0.0 3.0 5 23
+ 0.17125 1 2 cbr 210 ------- 2 1.0 3.1 19 30
- 0.17125 1 2 cbr 210 ------- 2 1.0 3.1 19 30
r 0.17343 1 2 cbr 210 ------- 2 1.0 3.1 17 27
+ 0.17343 2 3 cbr 210 ------- 2 1.0 3.1 17 27
+ 0.175 1 2 cbr 210 ------- 2 1.0 3.1 20 31
- 0.175 1 2 cbr 210 ------- 2 1.0 3.1 20 31
r 0.175256 2 3 tcp 1040 ------- 1 0.0 3.0 4 19
+ 0.175256 3 2 ack 40 ------- 1 3.0 0.0 4 32
- 0.175256 3 2 ack 40 ------- 1 3.0 0.0 4 32
r 0.175256 3 2 ack 40 ------- 1 3.0 0.0 3 28
+ 0.175256 2 0 ack 40 ------- 1 3.0 0.0 3 28
- 0.175256 2 0 ack 40 ------- 1 3.0 0.0 3 28
r 0.176288 2 0 ack 40 ------- 1 3.0 0.0 3 28
+ 0.176288 0 2 tcp 1040 ------- 1 0.0 3.0 7 33
- 0.176288 0 2 tcp 1040 ------- 1 0.0 3.0 7 33
+ 0.176288 0 2 tcp 1040 ------- 1 0.0 3.0 8 34
r 0.176936 2 3 cbr 210 ------- 2 1.0 3.1 11 16
- 0.17712 0 2 tcp 1040 ------- 1 0.0 3.0 8 34
r 0.17718 1 2 cbr 210 ------- 2 1.0 3.1 18 29
+ 0.17718 2 3 cbr 210 ------- 2 1.0 3.1 18 29
r 0.17812 0 2 tcp 1040 ------- 1 0.0 3.0 7 33
+ 0.17812 2 3 tcp 1040 ------- 1 0.0 3.0 7 33
r 0.178616 2 3 cbr 210 ------- 2 1.0 3.1 12 17
+ 0.17875 1 2 cbr 210 ------- 2 1.0 3.1 21 35
- 0.17875 1 2 cbr 210 ------- 2 1.0 3.1 21 35
- 0.178936 2 3 cbr 210 ------- 2 1.0 3.1 13 21
r 0.178952 0 2 tcp 1040 ------- 1 0.0 3.0 8 34
+ 0.178952 2 3 tcp 1040 ------- 1 0.0 3.0 8 34
- 0.180616 2 3 tcp 1040 ------- 1 0.0 3.0 6 24
r 0.18093 1 2 cbr 210 ------- 2 1.0 3.1 19 30
+ 0.18093 2 3 cbr 210 ------- 2 1.0 3.1 19 30
+ 0.1825 1 2 cbr 210 ------- 2 1.0 3.1 22 36
- 0.1825 1 2 cbr 210 ------- 2 1.0 3.1 22 36
r 0.183576 3 2 ack 40 ------- 1 3.0 0.0 4 32
+ 0.183576 2 0 ack 40 ------- 1 3.0 0.0 4 32
- 0.183576 2 0 ack 40 ------- 1 3.0 0.0 4 32
r 0.184608 2 0 ack 40 ------- 1 3.0 0.0 4 32
+ 0.184608 0 2 tcp 1040 ------- 1 0.0 3.0 9 37
- 0.184608 0 2 tcp 1040 ------- 1 0.0 3.0 9 37
+ 0.184608 0 2 tcp 1040 ------- 1 0.0 3.0 10 38
r 0.18468 1 2 cbr 210 ------- 2 1.0 3.1 20 31
+ 0.18468 2 3 cbr 210 ------- 2 1.0 3.1 20 31
- 0.18544 0 2 tcp 1040 ------- 1 0.0 3.0 10 38
+ 0.18625 1 2 cbr 210 ------- 2 1.0 3.1 23 39
- 0.18625 1 2 cbr 210 ------- 2 1.0 3.1 23 39
r 0.18644 0 2 tcp 1040 ------- 1 0.0 3.0 9 37
+ 0.18644 2 3 tcp 1040 ------- 1 0.0 3.0 9 37
r 0.186936 2 3 tcp 1040 ------- 1 0.0 3.0 5 23
+ 0.186936 3 2 ack 40 ------- 1 3.0 0.0 5 40
- 0.186936 3 2 ack 40 ------- 1 3.0 0.0 5 40
r 0.187272 0 2 tcp 1040 ------- 1 0.0 3.0 10 38
+ 0.187272 2 3 tcp 1040 ------- 1 0.0 3.0 10 38
r 0.18843 1 2 cbr 210 ------- 2 1.0 3.1 21 35
+ 0.18843 2 3 cbr 210 ------- 2 1.0 3.1 21 35
r 0.188616 2 3 cbr 210 ------- 2 1.0 3.1 13 21
- 0.188936 2 3 cbr 210 ------- 2 1.0 3.1 14 22
+ 0.19 1 2 cbr 210 ------- 2 1.0 3.1 24 41
- 0.19 1 2 cbr 210 ------- 2 1.0 3.1 24 41
- 0.190616 2 3 cbr 210 ------- 2 1.0 3.1 15 25
r 0.19218 1 2 cbr 210 ------- 2 1.0 3.1 22 36
+ 0.19218 2 3 cbr 210 ------- 2 1.0 3.1 22 36
- 0.192296 2 3 cbr 210 ------- 2 1.0 3.1 16 26
+ 0.19375 1 2 cbr 210 ------- 2 1.0 3.1 25 42
- 0.19375 1 2 cbr 210 ------- 2 1.0 3.1 25 42
- 0.193976 2 3 cbr 210 ------- 2 1.0 3.1 17 27
r 0.195256 3 2 ack 40 ------- 1 3.0 0.0 5 40
+ 0.195256 2 0 ack 40 ------- 1 3.0 0.0 5 40
- 0.195256 2 0 ack 40 ------- 1 3.0 0.0 5 40
- 0.195656 2 3 cbr 210 ------- 2 1.0 3.1 18 29
r 0.19593 1 2 cbr 210 ------- 2 1.0 3.1 23 39
+ 0.19593 2 3 cbr 210 ------- 2 1.0 3.1 23 39
r 0.196288 2 0 ack 40 ------- 1 3.0 0.0 5 40
+ 0.196288 0 2 tcp 1040 ------- 1 0.0 3.0 11 43
- 0.196288 0 2 tcp 1040 ------- 1 0.0 3.0 11 43
+ 0.196288 0 2 tcp 1040 ------- 1 0.0 3.0 12 44
r 0.196936 2 3 tcp 1040 ------- 1 0.0 3.0 6 24
+ 0.196936 3 2 ack 40 ------- 1 3.0 0.0 6 45
- 0.196936 3 2 ack 40 ------- 1 3.0 0.0 6 45
- 0.19712 0 2 tcp 1040 ------- 1 0.0 3.0 12 44
- 0.197336 2 3 tcp 1040 ------- 1 0.0 3.0 7 33
+ 0.1975 1 2 cbr 210 ------- 2 1.0 3.1 26 46
- 0.1975 1 2 cbr 210 ------- 2 1.0 3.1 26 46
r 0.19812 0 2 tcp 1040 ------- 1 0.0 3.0 11 43
+ 0.19812 2 3 tcp 1040 ------- 1 0.0 3.0 11 43
r 0.198616 2 3 cbr 210 ------- 2 1.0 3.1 14 22
r 0.198952 0 2 tcp 1040 ------- 1 0.0 3.0 12 44
+ 0.198952 2 3 tcp 1040 ------- 1 0.0 3.0 12 44
r 0.19968 1 2 cbr 210 ------- 2 1.0 3.1 24 41
+ 0.19968 2 3 cbr 210 ------- 2 1.0 3.1 24 41
r 0.200296 2 3 cbr 210 ------- 2 1.0 3.1 15 25
+ 0.20125 1 2 cbr 210 ------- 2 1.0 3.1 27 47
- 0.20125 1 2 cbr 210 ------- 2 1.0 3.1 27 47
r 0.201976 2 3 cbr 210 ------- 2 1.0 3.1 16 26
r 0.20343 1 2 cbr 210 ------- 2 1.0 3.1 25 42
+ 0.20343 2 3 cbr 210 ------- 2 1.0 3.1 25 42
r 0.203656 2 3 cbr 210 ------- 2 1.0 3.1 17 27
+ 0.205 1 2 cbr 210 ------- 2 1.0 3.1 28 48
- 0.205 1 2 cbr 210 ------- 2 1.0 3.1 28 48
r 0.205256 3 2 ack 40 ------- 1 3.0 0.0 6 45
+ 0.205256 2 0 ack 40 ------- 1 3.0 0.0 6 45
- 0.205256 2 0 ack 40 ------- 1 3.0 0.0 6 45
r 0.205336 2 3 cbr 210 ------- 2 1.0 3.1 18 29
- 0.205656 2 3 tcp 1040 ------- 1 0.0 3.0 8 34
r 0.206288 2 0 ack 40 ------- 1 3.0 0.0 6 45
+ 0.206288 0 2 tcp 1040 ------- 1 0.0 3.0 13 49
- 0.206288 0 2 tcp 1040 ------- 1 0.0 3.0 13 49
+ 0.206288 0 2 tcp 1040 ------- 1 0.0 3.0 14 50
- 0.20712 0 2 tcp 1040 ------- 1 0.0 3.0 14 50
r 0.20718 1 2 cbr 210 ------- 2 1.0 3.1 26 46
+ 0.20718 2 3 cbr 210 ------- 2 1.0 3.1 26 46
r 0.20812 0 2 tcp 1040 ------- 1 0.0 3.0 13 49
+ 0.20812 2 3 tcp 1040 ------- 1 0.0 3.0 13 49
+ 0.20875 1 2 cbr 210 ------- 2 1.0 3.1 29 51
- 0.20875 1 2 cbr 210 ------- 2 1.0 3.1 29 51
r 0.208952 0 2 tcp 1040 ------- 1 0.0 3.0 14 50
+ 0.208952 2 3 tcp 1040 ------- 1 0.0 3.0 14 50
r 0.21093 1 2 cbr 210 ------- 2 1.0 3.1 27 47
+ 0.21093 2 3 cbr 210 ------- 2 1.0 3.1 27 47
+ 0.2125 1 2 cbr 210 ------- 2 1.0 3.1 30 52
- 0.2125 1 2 cbr 210 ------- 2 1.0 3.1 30 52
r 0.213656 2 3 tcp 1040 ------- 1 0.0 3.0 7 33
+ 0.213656 3 2 ack 40 ------- 1 3.0 0.0 7 53
- 0.213656 3 2 ack 40 ------- 1 3.0 0.0 7 53
- 0.213976 2 3 cbr 210 ------- 2 1.0 3.1 19 30
r 0.21468 1 2 cbr 210 ------- 2 1.0 3.1 28 48
+ 0.21468 2 3 cbr 210 ------- 2 1.0 3.1 28 48
- 0.215656 2 3 cbr 210 ------- 2 1.0 3.1 20 31
+ 0.21625 1 2 cbr 210 ------- 2 1.0 3.1 31 54
- 0.21625 1 2 cbr 210 ------- 2 1.0 3.1 31 54
- 0.217336 2 3 tcp 1040 ------- 1 0.0 3.0 9 37
r 0.21843 1 2 cbr 210 ------- 2 1.0 3.1 29 51
+ 0.21843 2 3 cbr 210 ------- 2 1.0 3.1 29 51
+ 0.22 1 2 cbr 210 ------- 2 1.0 3.1 32 55
- 0.22 1 2 cbr 210 ------- 2 1.0 3.1 32 55
r 0.221976 2 3 tcp 1040 ------- 1 0.0 3.0 8 34
+ 0.221976 3 2 ack 40 ------- 1 3.0 0.0 8 56
- 0.221976 3 2 ack 40 ------- 1 3.0 0.0 8 56
r 0.221976 3 2 ack 40 ------- 1 3.0 0.0 7 53
+ 0.221976 2 0 ack 40 ------- 1 3.0 0.0 7 53
- 0.221976 2 0 ack 40 ------- 1 3.0 0.0 7 53
r 0.22218 1 2 cbr 210 ------- 2 1.0 3.1 30 52
+ 0.22218 2 3 cbr 210 ------- 2 1.0 3.1 30 52
r 0.223008 2 0 ack 40 ------- 1 3.0 0.0 7 53
+ 0.223008 0 2 tcp 1040 ------- 1 0.0 3.0 15 57
- 0.223008 0 2 tcp 1040 ------- 1 0.0 3.0 15 57
+ 0.223008 0 2 tcp 1040 ------- 1 0.0 3.0 16 58
r 0.223656 2 3 cbr 210 ------- 2 1.0 3.1 19 30
+ 0.22375 1 2 cbr 210 ------- 2 1.0 3.1 33 59
- 0.22375 1 2 cbr 210 ------- 2 1.0 3.1 33 59
- 0.22384 0 2 tcp 1040 ------- 1 0.0 3.0 16 58
r 0.22484 0 2 tcp 1040 ------- 1 0.0 3.0 15 57
+ 0.22484 2 3 tcp 1040 ------- 1 0.0 3.0 15 57
r 0.225336 2 3 cbr 210 ------- 2 1.0 3.1 20 31
- 0.225656 2 3 tcp 1040 ------- 1 0.0 3.0 10 38
r 0.225672 0 2 tcp 1040 ------- 1 0.0 3.0 16 58
+ 0.225672 2 3 tcp 1040 ------- 1 0.0 3.0 16 58
r 0.22593 1 2 cbr 210 ------- 2 1.0 3.1 31 54
+ 0.22593 2 3 cbr 210 ------- 2 1.0 3.1 31 54
+ 0.2275 1 2 cbr 210 ------- 2 1.0 3.1 34 60
- 0.2275 1 2 cbr 210 ------- 2 1.0 3.1 34 60
r 0.22968 1 2 cbr 210 ------- 2 1.0 3.1 32 55
+ 0.22968 2 3 cbr 210 ------- 2 1.0 3.1 32 55
r 0.230296 3 2 ack 40 ------- 1 3.0 0.0 8 56
+ 0.230296 2 0 ack 40 ------- 1 3.0 0.0 8 56
- 0.230296 2 0 ack 40 ------- 1 3.0 0.0 8 56
+ 0.23125 1 2 cbr 210 ------- 2 1.0 3.1 35 61
- 0.23125 1 2 cbr 210 ------- 2 1.0 3.1 35 61
r 0.231328 2 0 ack 40 ------- 1 3.0 0.0 8 56
+ 0.231328 0 2 tcp 1040 ------- 1 0.0 3.0 17 62
- 0.231328 0 2 tcp 1040 ------- 1 0.0 3.0 17 62
+ 0.231328 0 2 tcp 1040 ------- 1 0.0 3.0 18 63
- 0.23216 0 2 tcp 1040 ------- 1 0.0 3.0 18 63
r 0.23316 0 2 tcp 1040 ------- 1 0.0 3.0 17 62
+ 0.23316 2 3 tcp 1040 ------- 1 0.0 3.0 17 62
r 0.23343 1 2 cbr 210 ------- 2 1.0 3.1 33 59
+ 0.23343 2 3 cbr 210 ------- 2 1.0 3.1 33 59
r 0.233656 2 3 tcp 1040 ------- 1 0.0 3.0 9 37
+ 0.233656 3 2 ack 40 ------- 1 3.0 0.0 9 64
- 0.233656 3 2 ack 40 ------- 1 3.0 0.0 9 64
- 0.233976 2 3 cbr 210 ------- 2 1.0 3.1 21 35
r 0.233992 0 2 tcp 1040 ------- 1 0.0 3.0 18 63
+ 0.233992 2 3 tcp 1040 ------- 1 0.0 3.0 18 63
+ 0.235 1 2 cbr 210 ------- 2 1.0 3.1 36 65
- 0.235 1 2 cbr 210 ------- 2 1.0 3.1 36 65
- 0.235656 2 3 cbr 210 ------- 2 1.0 3.1 22 36
r 0.23718 1 2 cbr 210 ------- 2 1.0 3.1 34 60
+ 0.23718 2 3 cbr 210 ------- 2 1.0 3.1 34 60
- 0.237336 2 3 cbr 210 ------- 2 1.0 3.1 23 39
+ 0.23875 1 2 cbr 210 ------- 2 1.0 3.1 37 66
- 0.23875 1 2 cbr 210 ------- 2 1.0 3.1 37 66
- 0.239016 2 3 tcp 1040 ------- 1 0.0 3.0 11 43
r 0.24093 1 2 cbr 210 ------- 2 1.0 3.1 35 61
+ 0.24093 2 3 cbr 210 ------- 2 1.0 3.1 35 61
r 0.241976 2 3 tcp 1040 ------- 1 0.0 3.0 10 38
+ 0.241976 3 2 ack 40 ------- 1 3.0 0.0 10 67
- 0.241976 3 2 ack 40 ------- 1 3.0 0.0 10 67
r 0.241976 3 2 ack 40 ------- 1 3.0 0.0 9 64
+ 0.241976 2 0 ack 40 ------- 1 3.0 0.0 9 64
- 0.241976 2 0 ack 40 ------- 1 3.0 0.0 9 64
+ 0.2425 1 2 cbr 210 ------- 2 1.0 3.1 38 68
- 0.2425 1 2 cbr 210 ------- 2 1.0 3.1 38 68
r 0.243008 2 0 ack 40 ------- 1 3.0 0.0 9 64
+ 0.243008 0 2 tcp 1040 ------- 1 0.0 3.0 19 69
- 0.243008 0 2 tcp 1040 ------- 1 0.0 3.0 19 69
+ 0.243008 0 2 tcp 1040 ------- 1 0.0 3.0 20 70
r 0.243656 2 3 cbr 210 ------- 2 1.0 3.1 21 35
- 0.24384 0 2 tcp 1040 ------- 1 0.0 3.0 20 70
r 0.24468 1 2 cbr 210 ------- 2 1.0 3.1 36 65
+ 0.24468 2 3 cbr 210 ------- 2 1.0 3.1 36 65
r 0.24484 0 2 tcp 1040 ------- 1 0.0 3.0 19 69
+ 0.24484 2 3 tcp 1040 ------- 1 0.0 3.0 19 69
r 0.245336 2 3 cbr 210 ------- 2 1.0 3.1 22 36
r 0.245672 0 2 tcp 1040 ------- 1 0.0 3.0 20 70
+ 0.245672 2 3 tcp 1040 ------- 1 0.0 3.0 20 70
+ 0.24625 1 2 cbr 210 ------- 2 1.0 3.1 39 71
- 0.24625 1 2 cbr 210 ------- 2 1.0 3.1 39 71
r 0.247016 2 3 cbr 210 ------- 2 1.0 3.1 23 39
- 0.247336 2 3 tcp 1040 ------- 1 0.0 3.0 12 44
r 0.24843 1 2 cbr 210 ------- 2 1.0 3.1 37 66
+ 0.24843 2 3 cbr 210 ------- 2 1.0 3.1 37 66
+ 0.25 1 2 cbr 210 ------- 2 1.0 3.1 40 72
- 0.25 1 2 cbr 210 ------- 2 1.0 3.1 40 72
r 0.250296 3 2 ack 40 ------- 1 3.0 0.0 10 67
+ 0.250296 2 0 ack 40 ------- 1 3.0 0.0 10 67
- 0.250296 2 0 ack 40 ------- 1 3.0 0.0 10 67
r 0.251328 2 0 ack 40 ------- 1 3.0 0.0 10 67
+ 0.251328 0 2 tcp 1040 ------- 1 0.0 3.0 21 73
- 0.251328 0 2 tcp 1040 ------- 1 0.0 3.0 21 73
+ 0.251328 0 2 tcp 1040 ------- 1 0.0 3.0 22 74
- 0.25216 0 2 tcp 1040 ------- 1 0.0 3.0 22 74
r 0.25218 1 2 cbr 210 ------- 2 1.0 3.1 38 68
+ 0.25218 2 3 cbr 210 ------- 2 1.0 3.1 38 68
r 0.25316 0 2 tcp 1040 ------- 1 0.0 3.0 21 73
+ 0.25316 2 3 tcp 1040 ------- 1 0.0 3.0 21 73
+ 0.25375 1 2 cbr 210 ------- 2 1.0 3.1 41 75
- 0.25375 1 2 cbr 210 ------- 2 1.0 3.1 41 75
r 0.253992 0 2 tcp 1040 ------- 1 0.0 3.0 22 74
+ 0.253992 2 3 tcp 1040 ------- 1 0.0 3.0 22 74
r 0.255336 2 3 tcp 1040 ------- 1 0.0 3.0 11 43
+ 0.255336 3 2 ack 40 ------- 1 3.0 0.0 11 76
- 0.255336 3 2 ack 40 ------- 1 3.0 0.0 11 76
- 0.255656 2 3 cbr 210 ------- 2 1.0 3.1 24 41
r 0.25593 1 2 cbr 210 ------- 2 1.0 3.1 39 71
+ 0.25593 2 3 cbr 210 ------- 2 1.0 3.1 39 71
- 0.257336 2 3 cbr 210 ------- 2 1.0 3.1 25 42
+ 0.2575 1 2 cbr 210 ------- 2 1.0 3.1 42 77
- 0.2575 1 2 cbr 210 ------- 2 1.0 3.1 42 77
- 0.259016 2 3 cbr 210 ------- 2 1.0 3.1 26 46
r 0.25968 1 2 cbr 210 ------- 2 1.0 3.1 40 72
+ 0.25968 2 3 cbr 210 ------- 2 1.0 3.1 40 72
- 0.260696 2 3 tcp 1040 ------- 1 0.0 3.0 13 49
+ 0.26125 1 2 cbr 210 ------- 2 1.0 3.1 43 78
- 0.26125 1 2 cbr 210 ------- 2 1.0 3.1 43 78
r 0.26343 1 2 cbr 210 ------- 2 1.0 3.1 41 75
+ 0.26343 2 3 cbr 210 ------- 2 1.0 3.1 41 75
r 0.263656 2 3 tcp 1040 ------- 1 0.0 3.0 12 44
+ 0.263656 3 2 ack 40 ------- 1 3.0 0.0 12 79
- 0.263656 3 2 ack 40 ------- 1 3.0 0.0 12 79
r 0.263656 3 2 ack 40 ------- 1 3.0 0.0 11 76
+ 0.263656 2 0 ack 40 ------- 1 3.0 0.0 11 76
- 0.263656 2 0 ack 40 ------- 1 3.0 0.0 11 76
r 0.264688 2 0 ack 40 ------- 1 3.0 0.0 11 76
+ 0.264688 0 2 tcp 1040 ------- 1 0.0 3.0 23 80
- 0.264688 0 2 tcp 1040 ------- 1 0.0 3.0 23 80
+ 0.264688 0 2 tcp 1040 ------- 1 0.0 3.0 24 81
+ 0.265 1 2 cbr 210 ------- 2 1.0 3.1 44 82
- 0.265 1 2 cbr 210 ------- 2 1.0 3.1 44 82
r 0.265336 2 3 cbr 210 ------- 2 1.0 3.1 24 41
- 0.26552 0 2 tcp 1040 ------- 1 0.0 3.0 24 81
r 0.26652 0 2 tcp 1040 ------- 1 0.0 3.0 23 80
+ 0.26652 2 3 tcp 1040 ------- 1 0.0 3.0 23 80
r 0.267016 2 3 cbr 210 ------- 2 1.0 3.1 25 42
r 0.26718 1 2 cbr 210 ------- 2 1.0 3.1 42 77
+ 0.26718 2 3 cbr 210 ------- 2 1.0 3.1 42 77
r 0.267352 0 2 tcp 1040 ------- 1 0.0 3.0 24 81
+ 0.267352 2 3 tcp 1040 ------- 1 0.0 3.0 24 81
r 0.268696 2 3 cbr 210 ------- 2 1.0 3.1 26 46
+ 0.26875 1 2 cbr 210 ------- 2 1.0 3.1 45 83
- 0.26875 1 2 cbr 210 ------- 2 1.0 3.1 45 83
- 0.269016 2 3 tcp 1040 ------- 1 0.0 3.0 14 50
r 0.27093 1 2 cbr 210 ------- 2 1.0 3.1 43 78
+ 0.27093 2 3 cbr 210 ------- 2 1.0 3.1 43 78
r 0.271976 3 2 ack 40 ------- 1 3.0 0.0 12 79
+ 0.271976 2 0 ack 40 ------- 1 3.0 0.0 12 79
- 0.271976 2 0 ack 40 ------- 1 3.0 0.0 12 79
+ 0.2725 1 2 cbr 210 ------- 2 1.0 3.1 46 84
- 0.2725 1 2 cbr 210 ------- 2 1.0 3.1 46 84
r 0.273008 2 0 ack 40 ------- 1 3.0 0.0 12 79
+ 0.273008 0 2 tcp 1040 ------- 1 0.0 3.0 25 85
- 0.273008 0 2 tcp 1040 ------- 1 0.0 3.0 25 85
+ 0.273008 0 2 tcp 1040 ------- 1 0.0 3.0 26 86
- 0.27384 0 2 tcp 1040 ------- 1 0.0 3.0 26 86
r 0.27468 1 2 cbr 210 ------- 2 1.0 3.1 44 82
+ 0.27468 2 3 cbr 210 ------- 2 1.0 3.1 44 82
r 0.27484 0 2 tcp 1040 ------- 1 0.0 3.0 25 85
+ 0.27484 2 3 tcp 1040 ------- 1 0.0 3.0 25 85
r 0.275672 0 2 tcp 1040 ------- 1 0.0 3.0 26 86
+ 0.275672 2 3 tcp 1040 ------- 1 0.0 3.0 26 86
+ 0.27625 1 2 cbr 210 ------- 2 1.0 3.1 47 87
- 0.27625 1 2 cbr 210 ------- 2 1.0 3.1 47 87
r 0.277016 2 3 tcp 1040 ------- 1 0.0 3.0 13 49
+ 0.277016 3 2 ack 40 ------- 1 3.0 0.0 13 88
- 0.277016 3 2 ack 40 ------- 1 3.0 0.0 13 88
- 0.277336 2 3 cbr 210 ------- 2 1.0 3.1 27 47
r 0.27843 1 2 cbr 210 ------- 2 1.0 3.1 45 83
+ 0.27843 2 3 cbr 210 ------- 2 1.0 3.1 45 83
- 0.279016 2 3 cbr 210 ------- 2 1.0 3.1 28 48
+ 0.28 1 2 cbr 210 ------- 2 1.0 3.1 48 89
- 0.28 1 2 cbr 210 ------- 2 1.0 3.1 48 89
- 0.280696 2 3 cbr 210 ------- 2 1.0 3.1 29 51
r 0.28218 1 2 cbr 210 ------- 2 1.0 3.1 46 84
+ 0.28218 2 3 cbr 210 ------- 2 1.0 3.1 46 84
- 0.282376 2 3 cbr 210 ------- 2 1.0 3.1 30 52
+ 0.28375 1 2 cbr 210 ------- 2 1.0 3.1 49 90
- 0.28375 1 2 cbr 210 ------- 2 1.0 3.1 49 90
- 0.284056 2 3 tcp 1040 ------- 1 0.0 3.0 15 57
r 0.285336 2 3 tcp 1040 ------- 1 0.0 3.0 14 50
+ 0.285336 3 2 ack 40 ------- 1 3.0 0.0 14 91
- 0.285336 3 2 ack 40 ------- 1 3.0 0.0 14 91
r 0.285336 3 2 ack 40 ------- 1 3.0 0.0 13 88
+ 0.285336 2 0 ack 40 ------- 1 3.0 0.0 13 88
- 0.285336 2 0 ack 40 ------- 1 3.0 0.0 13 88
r 0.28593 1 2 cbr 210 ------- 2 1.0 3.1 47 87
+ 0.28593 2 3 cbr 210 ------- 2 1.0 3.1 47 87
r 0.286368 2 0 ack 40 ------- 1 3.0 0.0 13 88
+ 0.286368 0 2 tcp 1040 ------- 1 0.0 3.0 27 92
- 0.286368 0 2 tcp 1040 ------- 1 0.0 3.0 27 92
+ 0.286368 0 2 tcp 1040 ------- 1 0.0 3.0 28 93
r 0.287016 2 3 cbr 210 ------- 2 1.0 3.1 27 47
- 0.2872 0 2 tcp 1040 ------- 1 0.0 3.0 28 93
+ 0.2875 1 2 cbr 210 ------- 2 1.0 3.1 50 94
- 0.2875 1 2 cbr 210 ------- 2 1.0 3.1 50 94
r 0.2882 0 2 tcp 1040 ------- 1 0.0 3.0 27 92
+ 0.2882 2 3 tcp 1040 ------- 1 0.0 3.0 27 92
r 0.288696 2 3 cbr 210 ------- 2 1.0 3.1 28 48
r 0.289032 0 2 tcp 1040 ------- 1 0.0 3.0 28 93
+ 0.289032 2 3 tcp 1040 ------- 1 0.0 3.0 28 93
r 0.28968 1 2 cbr 210 ------- 2 1.0 3.1 48 89
+ 0.28968 2 3 cbr 210 ------- 2 1.0 3.1 48 89
r 0.290376 2 3 cbr 210 ------- 2 1.0 3.1 29 51
+ 0.29125 1 2 cbr 210 ------- 2 1.0 3.1 51 95
- 0.29125 1 2 cbr 210 ------- 2 1.0 3.1 51 95
r 0.292056 2 3 cbr 210 ------- 2 1.0 3.1 30 52
- 0.292376 2 3 tcp 1040 ------- 1 0.0 3.0 16 58
r 0.29343 1 2 cbr 210 ------- 2 1.0 3.1 49 90
+ 0.29343 2 3 cbr 210 ------- 2 1.0 3.1 49 90
r 0.293656 3 2 ack 40 ------- 1 3.0 0.0 14 91
+ 0.293656 2 0 ack 40 ------- 1 3.0 0.0 14 91
- 0.293656 2 0 ack 40 ------- 1 3.0 0.0 14 91
r 0.294688 2 0 ack 40 ------- 1 3.0 0.0 14 91
+ 0.294688 0 2 tcp 1040 ------- 1 0.0 3.0 29 96
- 0.294688 0 2 tcp 1040 ------- 1 0.0 3.0 29 96
+ 0.294688 0 2 tcp 1040 ------- 1 0.0 3.0 30 97
+ 0.295 1 2 cbr 210 ------- 2 1.0 3.1 52 98
- 0.295 1 2 cbr 210 ------- 2 1.0 3.1 52 98
- 0.29552 0 2 tcp 1040 ------- 1 0.0 3.0 30 97
r 0.29652 0 2 tcp 1040 ------- 1 0.0 3.0 29 96
+ 0.29652 2 3 tcp 1040 ------- 1 0.0 3.0 29 96
r 0.29718 1 2 cbr 210 ------- 2 1.0 3.1 50 94
+ 0.29718 2 3 cbr 210 ------- 2 1.0 3.1 50 94
r 0.297352 0 2 tcp 1040 ------- 1 0.0 3.0 30 97
+ 0.297352 2 3 tcp 1040 ------- 1 0.0 3.0 30 97
+ 0.29875 1 2 cbr 210 ------- 2 1.0 3.1 53 99
- 0.29875 1 2 cbr 210 ------- 2 1.0 3.1 53 99
r 0.300376 2 3 tcp 1040 ------- 1 0.0 3.0 15 57
+ 0.300376 3 2 ack 40 ------- 1 3.0 0.0 15 100
- 0.300376 3 2 ack 40 ------- 1 3.0 0.0 15 100
- 0.300696 2 3 cbr 210 ------- 2 1.0 3.1 31 54
r 0.30093 1 2 cbr 210 ------- 2 1.0 3.1 51 95
+ 0.30093 2 3 cbr 210 ------- 2 1.0 3.1 51 95
- 0.302376 2 3 cbr 210 ------- 2 1.0 3.1 32 55
+ 0.3025 1 2 cbr 210 ------- 2 1.0 3.1 54 101
- 0.3025 1 2 cbr 210 ------- 2 1.0 3.1 54 101
- 0.304056 2 3 tcp 1040 ------- 1 0.0 3.0 17 62
r 0.30468 1 2 cbr 210 ------- 2 1.0 3.1 52 98
+ 0.30468 2 3 cbr 210 ------- 2 1.0 3.1 52 98
+ 0.30625 1 2 cbr 210 ------- 2 1.0 3.1 55 102
- 0.30625 1 2 cbr 210 ------- 2 1.0 3.1 55 102
r 0.30843 1 2 cbr 210 ------- 2 1.0 3.1 53 99
+ 0.30843 2 3 cbr 210 ------- 2 1.0 3.1 53 99
r 0.308696 2 3 tcp 1040 ------- 1 0.0 3.0 16 58
+ 0.308696 3 2 ack 40 ------- 1 3.0 0.0 16 103
- 0.308696 3 2 ack 40 ------- 1 3.0 0.0 16 103
r 0.308696 3 2 ack 40 ------- 1 3.0 0.0 15 100
+ 0.308696 2 0 ack 40 ------- 1 3.0 0.0 15 100
- 0.308696 2 0 ack 40 ------- 1 3.0 0.0 15 100
r 0.309728 2 0 ack 40 ------- 1 3.0 0.0 15 100
+ 0.309728 0 2 tcp 1040 ------- 1 0.0 3.0 31 104
- 0.309728 0 2 tcp 1040 ------- 1 0.0 3.0 31 104
+ 0.309728 0 2 tcp 1040 ------- 1 0.0 3.0 32 105
+ 0.31 1 2 cbr 210 ------- 2 1.0 3.1 56 106
- 0.31 1 2 cbr 210 ------- 2 1.0 3.1 56 106
r 0.310376 2 3 cbr 210 ------- 2 1.0 3.1 31 54
- 0.31056 0 2 tcp 1040 ------- 1 0.0 3.0 32 105
r 0.31156 0 2 tcp 1040 ------- 1 0.0 3.0 31 104
+ 0.31156 2 3 tcp 1040 ------- 1 0.0 3.0 31 104
r 0.312056 2 3 cbr 210 ------- 2 1.0 3.1 32 55
r 0.31218 1 2 cbr 210 ------- 2 1.0 3.1 54 101
+ 0.31218 2 3 cbr 210 ------- 2 1.0 3.1 54 101
- 0.312376 2 3 cbr 210 ------- 2 1.0 3.1 33 59
r 0.312392 0 2 tcp 1040 ------- 1 0.0 3.0 32 105
+ 0.312392 2 3 tcp 1040 ------- 1 0.0 3.0 32 105
+ 0.31375 1 2 cbr 210 ------- 2 1.0 3.1 57 107
- 0.31375 1 2 cbr 210 ------- 2 1.0 3.1 57 107
- 0.314056 2 3 tcp 1040 ------- 1 0.0 3.0 18 63
r 0.31593 1 2 cbr 210 ------- 2 1.0 3.1 55 102
+ 0.31593 2 3 cbr 210 ------- 2 1.0 3.1 55 102
r 0.317016 3 2 ack 40 ------- 1 3.0 0.0 16 103
+ 0.317016 2 0 ack 40 ------- 1 3.0 0.0 16 103
- 0.317016 2 0 ack 40 ------- 1 3.0 0.0 16 103
+ 0.3175 1 2 cbr 210 ------- 2 1.0 3.1 58 108
- 0.3175 1 2 cbr 210 ------- 2 1.0 3.1 58 108
r 0.318048 2 0 ack 40 ------- 1 3.0 0.0 16 103
+ 0.318048 0 2 tcp 1040 ------- 1 0.0 3.0 33 109
- 0.318048 0 2 tcp 1040 ------- 1 0.0 3.0 33 109
+ 0.318048 0 2 tcp 1040 ------- 1 0.0 3.0 34 110
- 0.31888 0 2 tcp 1040 ------- 1 0.0 3.0 34 110
r 0.31968 1 2 cbr 210 ------- 2 1.0 3.1 56 106
+ 0.31968 2 3 cbr 210 ------- 2 1.0 3.1 56 106
r 0.31988 0 2 tcp 1040 ------- 1 0.0 3.0 33 109
+ 0.31988 2 3 tcp 1040 ------- 1 0.0 3.0 33 109
r 0.320376 2 3 tcp 1040 ------- 1 0.0 3.0 17 62
+ 0.320376 3 2 ack 40 ------- 1 3.0 0.0 17 111
- 0.320376 3 2 ack 40 ------- 1 3.0 0.0 17 111
r 0.320712 0 2 tcp 1040 ------- 1 0.0 3.0 34 110
+ 0.320712 2 3 tcp 1040 ------- 1 0.0 3.0 34 110
+ 0.32125 1 2 cbr 210 ------- 2 1.0 3.1 59 112
- 0.32125 1 2 cbr 210 ------- 2 1.0 3.1 59 112
r 0.322056 2 3 cbr 210 ------- 2 1.0 3.1 33 59
- 0.322376 2 3 cbr 210 ------- 2 1.0 3.1 34 60
r 0.32343 1 2 cbr 210 ------- 2 1.0 3.1 57 107
+ 0.32343 2 3 cbr 210 ------- 2 1.0 3.1 57 107
- 0.324056 2 3 cbr 210 ------- 2 1.0 3.1 35 61
+ 0.325 1 2 cbr 210 ------- 2 1.0 3.1 60 113
- 0.325 1 2 cbr 210 ------- 2 1.0 3.1 60 113
- 0.325736 2 3 cbr 210 ------- 2 1.0 3.1 36 65
r 0.32718 1 2 cbr 210 ------- 2 1.0 3.1 58 108
+ 0.32718 2 3 cbr 210 ------- 2 1.0 3.1 58 108
- 0.327416 2 3 tcp 1040 ------- 1 0.0 3.0 19 69
r 0.328696 3 2 ack 40 ------- 1 3.0 0.0 17 111
+ 0.328696 2 0 ack 40 ------- 1 3.0 0.0 17 111
- 0.328696 2 0 ack 40 ------- 1 3.0 0.0 17 111
+ 0.32875 1 2 cbr 210 ------- 2 1.0 3.1 61 114
- 0.32875 1 2 cbr 210 ------- 2 1.0 3.1 61 114
r 0.329728 2 0 ack 40 ------- 1 3.0 0.0 17 111
+ 0.329728 0 2 tcp 1040 ------- 1 0.0 3.0 35 115
- 0.329728 0 2 tcp 1040 ------- 1 0.0 3.0 35 115
+ 0.329728 0 2 tcp 1040 ------- 1 0.0 3.0 36 116
r 0.330376 2 3 tcp 1040 ------- 1 0.0 3.0 18 63
+ 0.330376 3 2 ack 40 ------- 1 3.0 0.0 18 117
- 0.330376 3 2 ack 40 ------- 1 3.0 0.0 18 117
- 0.33056 0 2 tcp 1040 ------- 1 0.0 3.0 36 116
r 0.33093 1 2 cbr 210 ------- 2 1.0 3.1 59 112
+ 0.33093 2 3 cbr 210 ------- 2 1.0 3.1 59 112
r 0.33156 0 2 tcp 1040 ------- 1 0.0 3.0 35 115
+ 0.33156 2 3 tcp 1040 ------- 1 0.0 3.0 35 115
r 0.332056 2 3 cbr 210 ------- 2 1.0 3.1 34 60
r 0.332392 0 2 tcp 1040 ------- 1 0.0 3.0 36 116
+ 0.332392 2 3 tcp 1040 ------- 1 0.0 3.0 36 116
+ 0.3325 1 2 cbr 210 ------- 2 1.0 3.1 62 118
- 0.3325 1 2 cbr 210 ------- 2 1.0 3.1 62 118
r 0.333736 2 3 cbr 210 ------- 2 1.0 3.1 35 61
r 0.33468 1 2 cbr 210 ------- 2 1.0 3.1 60 113
+ 0.33468 2 3 cbr 210 ------- 2 1.0 3.1 60 113
r 0.335416 2 3 cbr 210 ------- 2 1.0 3.1 36 65
- 0.335736 2 3 tcp 1040 ------- 1 0.0 3.0 20 70
+ 0.33625 1 2 cbr 210 ------- 2 1.0 3.1 63 119
- 0.33625 1 2 cbr 210 ------- 2 1.0 3.1 63 119
r 0.33843 1 2 cbr 210 ------- 2 1.0 3.1 61 114
+ 0.33843 2 3 cbr 210 ------- 2 1.0 3.1 61 114
r 0.338696 3 2 ack 40 ------- 1 3.0 0.0 18 117
+ 0.338696 2 0 ack 40 ------- 1 3.0 0.0 18 117
- 0.338696 2 0 ack 40 ------- 1 3.0 0.0 18 117
r 0.339728 2 0 ack 40 ------- 1 3.0 0.0 18 117
+ 0.339728 0 2 tcp 1040 ------- 1 0.0 3.0 37 120
- 0.339728 0 2 tcp 1040 ------- 1 0.0 3.0 37 120
+ 0.339728 0 2 tcp 1040 ------- 1 0.0 3.0 38 121
+ 0.34 1 2 cbr 210 ------- 2 1.0 3.1 64 122
- 0.34 1 2 cbr 210 ------- 2 1.0 3.1 64 122
- 0.34056 0 2 tcp 1040 ------- 1 0.0 3.0 38 121
r 0.34156 0 2 tcp 1040 ------- 1 0.0 3.0 37 120
+ 0.34156 2 3 tcp 1040 ------- 1 0.0 3.0 37 120
r 0.34218 1 2 cbr 210 ------- 2 1.0 3.1 62 118
+ 0.34218 2 3 cbr 210 ------- 2 1.0 3.1 62 118
r 0.342392 0 2 tcp 1040 ------- 1 0.0 3.0 38 121
+ 0.342392 2 3 tcp 1040 ------- 1 0.0 3.0 38 121
r 0.343736 2 3 tcp 1040 ------- 1 0.0 3.0 19 69
+ 0.343736 3 2 ack 40 ------- 1 3.0 0.0 19 123
- 0.343736 3 2 ack 40 ------- 1 3.0 0.0 19 123
+ 0.34375 1 2 cbr 210 ------- 2 1.0 3.1 65 124
- 0.34375 1 2 cbr 210 ------- 2 1.0 3.1 65 124
- 0.344056 2 3 cbr 210 ------- 2 1.0 3.1 37 66
- 0.345736 2 3 cbr 210 ------- 2 1.0 3.1 38 68
r 0.34593 1 2 cbr 210 ------- 2 1.0 3.1 63 119
+ 0.34593 2 3 cbr 210 ------- 2 1.0 3.1 63 119