+ 0.1 0 2 tcp 40 ------- 0 0.0 2.0 0 0
- 0.1 0 2 tcp 40 ------- 0 0.0 2.0 0 0
+ 0.1 1 2 tcp 40 ------- 0 1.0 2.1 0 1
- 0.1 1 2 tcp 40 ------- 0 1.0 2.1 0 1
r 0.108011 0 2 tcp 40 ------- 0 0.0 2.0 0 0
+ 0.108011 2 0 ack 40 ------- 0 2.0 0.0 0 2
- 0.108011 2 0 ack 40 ------- 0 2.0 0.0 0 2
r 0.108107 1 2 tcp 40 ------- 0 1.0 2.1 0 1
+ 0.108107 2 1 ack 40 ------- 0 2.1 1.0 0 3
- 0.108107 2 1 ack 40 ------- 0 2.1 1.0 0 3
r 0.116021 2 0 ack 40 ------- 0 2.0 0.0 0 2
+ 0.116021 0 2 tcp 1040 ------- 0 0.0 2.0 1 4
- 0.116021 0 2 tcp 1040 ------- 0 0.0 2.0 1 4
+ 0.116021 0 2 tcp 1040 ------- 0 0.0 2.0 2 5
r 0.116213 2 1 ack 40 ------- 0 2.1 1.0 0 3
+ 0.116213 1 2 tcp 1040 ------- 0 1.0 2.1 1 6
- 0.116213 1 2 tcp 1040 ------- 0 1.0 2.1 1 6
+ 0.116213 1 2 tcp 1040 ------- 0 1.0 2.1 2 7
- 0.116299 0 2 tcp 1040 ------- 0 0.0 2.0 2 5
- 0.118987 1 2 tcp 1040 ------- 0 1.0 2.1 2 7
r 0.124299 0 2 tcp 1040 ------- 0 0.0 2.0 1 4
+ 0.124299 2 0 ack 40 ------- 0 2.0 0.0 1 8
- 0.124299 2 0 ack 40 ------- 0 2.0 0.0 1 8
r 0.124576 0 2 tcp 1040 ------- 0 0.0 2.0 2 5
+ 0.124576 2 0 ack 40 ------- 0 2.0 0.0 2 9
- 0.124576 2 0 ack 40 ------- 0 2.0 0.0 2 9
r 0.126987 1 2 tcp 1040 ------- 0 1.0 2.1 1 6
+ 0.126987 2 1 ack 40 ------- 0 2.1 1.0 1 10
- 0.126987 2 1 ack 40 ------- 0 2.1 1.0 1 10
r 0.12976 1 2 tcp 1040 ------- 0 1.0 2.1 2 7
+ 0.12976 2 1 ack 40 ------- 0 2.1 1.0 2 11
- 0.12976 2 1 ack 40 ------- 0 2.1 1.0 2 11
r 0.132309 2 0 ack 40 ------- 0 2.0 0.0 1 8
+ 0.132309 0 2 tcp 1040 ------- 0 0.0 2.0 3 12
- 0.132309 0 2 tcp 1040 ------- 0 0.0 2.0 3 12
+ 0.132309 0 2 tcp 1040 ------- 0 0.0 2.0 4 13
- 0.132587 0 2 tcp 1040 ------- 0 0.0 2.0 4 13
r 0.132587 2 0 ack 40 ------- 0 2.0 0.0 2 9
+ 0.132587 0 2 tcp 1040 ------- 0 0.0 2.0 5 14
+ 0.132587 0 2 tcp 1040 ------- 0 0.0 2.0 6 15
- 0.132864 0 2 tcp 1040 ------- 0 0.0 2.0 5 14
- 0.133141 0 2 tcp 1040 ------- 0 0.0 2.0 6 15
r 0.135093 2 1 ack 40 ------- 0 2.1 1.0 1 10
+ 0.135093 1 2 tcp 1040 ------- 0 1.0 2.1 3 16
- 0.135093 1 2 tcp 1040 ------- 0 1.0 2.1 3 16
+ 0.135093 1 2 tcp 1040 ------- 0 1.0 2.1 4 17
- 0.137867 1 2 tcp 1040 ------- 0 1.0 2.1 4 17
r 0.137867 2 1 ack 40 ------- 0 2.1 1.0 2 11
+ 0.137867 1 2 tcp 1040 ------- 0 1.0 2.1 5 18
+ 0.137867 1 2 tcp 1040 ------- 0 1.0 2.1 6 19
r 0.140587 0 2 tcp 1040 ------- 0 0.0 2.0 3 12
+ 0.140587 2 0 ack 40 ------- 0 2.0 0.0 3 20
- 0.140587 2 0 ack 40 ------- 0 2.0 0.0 3 20
- 0.14064 1 2 tcp 1040 ------- 0 1.0 2.1 5 18
r 0.140864 0 2 tcp 1040 ------- 0 0.0 2.0 4 13
+ 0.140864 2 0 ack 40 ------- 0 2.0 0.0 4 21
- 0.140864 2 0 ack 40 ------- 0 2.0 0.0 4 21
r 0.141141 0 2 tcp 1040 ------- 0 0.0 2.0 5 14
+ 0.141141 2 0 ack 40 ------- 0 2.0 0.0 5 22
- 0.141141 2 0 ack 40 ------- 0 2.0 0.0 5 22
r 0.141419 0 2 tcp 1040 ------- 0 0.0 2.0 6 15
+ 0.141419 2 0 ack 40 ------- 0 2.0 0.0 6 23
- 0.141419 2 0 ack 40 ------- 0 2.0 0.0 6 23
- 0.143413 1 2 tcp 1040 ------- 0 1.0 2.1 6 19
r 0.145867 1 2 tcp 1040 ------- 0 1.0 2.1 3 16
+ 0.145867 2 1 ack 40 ------- 0 2.1 1.0 3 24
- 0.145867 2 1 ack 40 ------- 0 2.1 1.0 3 24
r 0.148597 2 0 ack 40 ------- 0 2.0 0.0 3 20
+ 0.148597 0 2 tcp 1040 ------- 0 0.0 2.0 7 25
- 0.148597 0 2 tcp 1040 ------- 0 0.0 2.0 7 25
+ 0.148597 0 2 tcp 1040 ------- 0 0.0 2.0 8 26
r 0.14864 1 2 tcp 1040 ------- 0 1.0 2.1 4 17
+ 0.14864 2 1 ack 40 ------- 0 2.1 1.0 4 27
- 0.14864 2 1 ack 40 ------- 0 2.1 1.0 4 27
r 0.148875 2 0 ack 40 ------- 0 2.0 0.0 4 21
+ 0.148875 0 2 tcp 1040 ------- 0 0.0 2.0 9 28
+ 0.148875 0 2 tcp 1040 ------- 0 0.0 2.0 10 29
d 0.148875 0 2 tcp 1040 ------- 0 0.0 2.0 10 29
- 0.148875 0 2 tcp 1040 ------- 0 0.0 2.0 8 26
r 0.149152 2 0 ack 40 ------- 0 2.0 0.0 5 22
+ 0.149152 0 2 tcp 1040 ------- 0 0.0 2.0 11 30
+ 0.149152 0 2 tcp 1040 ------- 0 0.0 2.0 12 31
d 0.149152 0 2 tcp 1040 ------- 0 0.0 2.0 12 31
- 0.149152 0 2 tcp 1040 ------- 0 0.0 2.0 9 28
r 0.149429 2 0 ack 40 ------- 0 2.0 0.0 6 23
+ 0.149429 0 2 tcp 1040 ------- 0 0.0 2.0 13 32
+ 0.149429 0 2 tcp 1040 ------- 0 0.0 2.0 14 33
d 0.149429 0 2 tcp 1040 ------- 0 0.0 2.0 14 33
- 0.149429 0 2 tcp 1040 ------- 0 0.0 2.0 11 30
- 0.149707 0 2 tcp 1040 ------- 0 0.0 2.0 13 32
r 0.151413 1 2 tcp 1040 ------- 0 1.0 2.1 5 18
+ 0.151413 2 1 ack 40 ------- 0 2.1 1.0 5 34
- 0.151413 2 1 ack 40 ------- 0 2.1 1.0 5 34
r 0.153973 2 1 ack 40 ------- 0 2.1 1.0 3 24
+ 0.153973 1 2 tcp 1040 ------- 0 1.0 2.1 7 35
- 0.153973 1 2 tcp 1040 ------- 0 1.0 2.1 7 35
+ 0.153973 1 2 tcp 1040 ------- 0 1.0 2.1 8 36
r 0.154187 1 2 tcp 1040 ------- 0 1.0 2.1 6 19
+ 0.154187 2 1 ack 40 ------- 0 2.1 1.0 6 37
- 0.154187 2 1 ack 40 ------- 0 2.1 1.0 6 37
r 0.156747 2 1 ack 40 ------- 0 2.1 1.0 4 27
+ 0.156747 1 2 tcp 1040 ------- 0 1.0 2.1 9 38
+ 0.156747 1 2 tcp 1040 ------- 0 1.0 2.1 10 39
d 0.156747 1 2 tcp 1040 ------- 0 1.0 2.1 10 39
- 0.156747 1 2 tcp 1040 ------- 0 1.0 2.1 8 36
r 0.156875 0 2 tcp 1040 ------- 0 0.0 2.0 7 25
+ 0.156875 2 0 ack 40 ------- 0 2.0 0.0 7 40
- 0.156875 2 0 ack 40 ------- 0 2.0 0.0 7 40
r 0.157152 0 2 tcp 1040 ------- 0 0.0 2.0 8 26
+ 0.157152 2 0 ack 40 ------- 0 2.0 0.0 8 41
- 0.157152 2 0 ack 40 ------- 0 2.0 0.0 8 41
r 0.157429 0 2 tcp 1040 ------- 0 0.0 2.0 9 28
+ 0.157429 2 0 ack 40 ------- 0 2.0 0.0 9 42
- 0.157429 2 0 ack 40 ------- 0 2.0 0.0 9 42
r 0.157707 0 2 tcp 1040 ------- 0 0.0 2.0 11 30
+ 0.157707 2 0 ack 40 ------- 0 2.0 0.0 9 43
- 0.157707 2 0 ack 40 ------- 0 2.0 0.0 9 43
r 0.157984 0 2 tcp 1040 ------- 0 0.0 2.0 13 32
+ 0.157984 2 0 ack 40 ------- 0 2.0 0.0 9 44
- 0.157984 2 0 ack 40 ------- 0 2.0 0.0 9 44
r 0.15952 2 1 ack 40 ------- 0 2.1 1.0 5 34
+ 0.15952 1 2 tcp 1040 ------- 0 1.0 2.1 11 45
+ 0.15952 1 2 tcp 1040 ------- 0 1.0 2.1 12 46
d 0.15952 1 2 tcp 1040 ------- 0 1.0 2.1 12 46
- 0.15952 1 2 tcp 1040 ------- 0 1.0 2.1 9 38
r 0.162293 2 1 ack 40 ------- 0 2.1 1.0 6 37
+ 0.162293 1 2 tcp 1040 ------- 0 1.0 2.1 13 47
+ 0.162293 1 2 tcp 1040 ------- 0 1.0 2.1 14 48
d 0.162293 1 2 tcp 1040 ------- 0 1.0 2.1 14 48
- 0.162293 1 2 tcp 1040 ------- 0 1.0 2.1 11 45
r 0.164747 1 2 tcp 1040 ------- 0 1.0 2.1 7 35
+ 0.164747 2 1 ack 40 ------- 0 2.1 1.0 7 49
- 0.164747 2 1 ack 40 ------- 0 2.1 1.0 7 49
r 0.164885 2 0 ack 40 ------- 0 2.0 0.0 7 40
+ 0.164885 0 2 tcp 1040 ------- 0 0.0 2.0 15 50
- 0.164885 0 2 tcp 1040 ------- 0 0.0 2.0 15 50
+ 0.164885 0 2 tcp 1040 ------- 0 0.0 2.0 16 51
- 0.165067 1 2 tcp 1040 ------- 0 1.0 2.1 13 47
r 0.165163 2 0 ack 40 ------- 0 2.0 0.0 8 41
+ 0.165163 0 2 tcp 1040 ------- 0 0.0 2.0 17 52
+ 0.165163 0 2 tcp 1040 ------- 0 0.0 2.0 18 53
d 0.165163 0 2 tcp 1040 ------- 0 0.0 2.0 18 53
- 0.165163 0 2 tcp 1040 ------- 0 0.0 2.0 16 51
r 0.16544 2 0 ack 40 ------- 0 2.0 0.0 9 42
+ 0.16544 0 2 tcp 1040 ------- 0 0.0 2.0 19 54
+ 0.16544 0 2 tcp 1040 ------- 0 0.0 2.0 20 55
d 0.16544 0 2 tcp 1040 ------- 0 0.0 2.0 20 55
- 0.16544 0 2 tcp 1040 ------- 0 0.0 2.0 17 52
r 0.165717 2 0 ack 40 ------- 0 2.0 0.0 9 43
+ 0.165717 0 2 tcp 1040 ------- 0 0.0 2.0 21 56
- 0.165717 0 2 tcp 1040 ------- 0 0.0 2.0 19 54
r 0.165995 2 0 ack 40 ------- 0 2.0 0.0 9 44
+ 0.165995 0 2 tcp 1040 ------- 0 0.0 2.0 22 57
- 0.165995 0 2 tcp 1040 ------- 0 0.0 2.0 21 56
- 0.166272 0 2 tcp 1040 ------- 0 0.0 2.0 22 57
r 0.16752 1 2 tcp 1040 ------- 0 1.0 2.1 8 36
+ 0.16752 2 1 ack 40 ------- 0 2.1 1.0 8 58
- 0.16752 2 1 ack 40 ------- 0 2.1 1.0 8 58
r 0.170293 1 2 tcp 1040 ------- 0 1.0 2.1 9 38
+ 0.170293 2 1 ack 40 ------- 0 2.1 1.0 9 59
- 0.170293 2 1 ack 40 ------- 0 2.1 1.0 9 59
r 0.172853 2 1 ack 40 ------- 0 2.1 1.0 7 49
+ 0.172853 1 2 tcp 1040 ------- 0 1.0 2.1 15 60
- 0.172853 1 2 tcp 1040 ------- 0 1.0 2.1 15 60
+ 0.172853 1 2 tcp 1040 ------- 0 1.0 2.1 16 61
r 0.173067 1 2 tcp 1040 ------- 0 1.0 2.1 11 45
+ 0.173067 2 1 ack 40 ------- 0 2.1 1.0 9 62
- 0.173067 2 1 ack 40 ------- 0 2.1 1.0 9 62
r 0.173163 0 2 tcp 1040 ------- 0 0.0 2.0 15 50
+ 0.173163 2 0 ack 40 ------- 0 2.0 0.0 9 63
- 0.173163 2 0 ack 40 ------- 0 2.0 0.0 9 63
r 0.17344 0 2 tcp 1040 ------- 0 0.0 2.0 16 51
+ 0.17344 2 0 ack 40 ------- 0 2.0 0.0 9 64
- 0.17344 2 0 ack 40 ------- 0 2.0 0.0 9 64
r 0.173717 0 2 tcp 1040 ------- 0 0.0 2.0 17 52
+ 0.173717 2 0 ack 40 ------- 0 2.0 0.0 9 65
- 0.173717 2 0 ack 40 ------- 0 2.0 0.0 9 65
r 0.173995 0 2 tcp 1040 ------- 0 0.0 2.0 19 54
+ 0.173995 2 0 ack 40 ------- 0 2.0 0.0 9 66
- 0.173995 2 0 ack 40 ------- 0 2.0 0.0 9 66
r 0.174272 0 2 tcp 1040 ------- 0 0.0 2.0 21 56
+ 0.174272 2 0 ack 40 ------- 0 2.0 0.0 9 67
- 0.174272 2 0 ack 40 ------- 0 2.0 0.0 9 67
r 0.174549 0 2 tcp 1040 ------- 0 0.0 2.0 22 57
+ 0.174549 2 0 ack 40 ------- 0 2.0 0.0 9 68
- 0.174549 2 0 ack 40 ------- 0 2.0 0.0 9 68
r 0.175627 2 1 ack 40 ------- 0 2.1 1.0 8 58
+ 0.175627 1 2 tcp 1040 ------- 0 1.0 2.1 17 69
+ 0.175627 1 2 tcp 1040 ------- 0 1.0 2.1 18 70
d 0.175627 1 2 tcp 1040 ------- 0 1.0 2.1 18 70
- 0.175627 1 2 tcp 1040 ------- 0 1.0 2.1 16 61
r 0.17584 1 2 tcp 1040 ------- 0 1.0 2.1 13 47
+ 0.17584 2 1 ack 40 ------- 0 2.1 1.0 9 71
- 0.17584 2 1 ack 40 ------- 0 2.1 1.0 9 71
r 0.1784 2 1 ack 40 ------- 0 2.1 1.0 9 59
+ 0.1784 1 2 tcp 1040 ------- 0 1.0 2.1 19 72
+ 0.1784 1 2 tcp 1040 ------- 0 1.0 2.1 20 73
d 0.1784 1 2 tcp 1040 ------- 0 1.0 2.1 20 73
- 0.1784 1 2 tcp 1040 ------- 0 1.0 2.1 17 69
r 0.181173 2 1 ack 40 ------- 0 2.1 1.0 9 62
+ 0.181173 1 2 tcp 1040 ------- 0 1.0 2.1 21 74
r 0.181173 2 0 ack 40 ------- 0 2.0 0.0 9 63
+ 0.181173 0 2 tcp 1040 ---A--- 0 0.0 2.0 10 75
- 0.181173 0 2 tcp 1040 ---A--- 0 0.0 2.0 10 75
- 0.181173 1 2 tcp 1040 ------- 0 1.0 2.1 19 72
r 0.181451 2 0 ack 40 ------- 0 2.0 0.0 9 64
r 0.181728 2 0 ack 40 ------- 0 2.0 0.0 9 65
r 0.182005 2 0 ack 40 ------- 0 2.0 0.0 9 66
r 0.182283 2 0 ack 40 ------- 0 2.0 0.0 9 67
r 0.18256 2 0 ack 40 ------- 0 2.0 0.0 9 68
r 0.183627 1 2 tcp 1040 ------- 0 1.0 2.1 15 60
+ 0.183627 2 1 ack 40 ------- 0 2.1 1.0 9 76
- 0.183627 2 1 ack 40 ------- 0 2.1 1.0 9 76
r 0.183947 2 1 ack 40 ------- 0 2.1 1.0 9 71
+ 0.183947 1 2 tcp 1040 ------- 0 1.0 2.1 22 77
- 0.183947 1 2 tcp 1040 ------- 0 1.0 2.1 21 74
r 0.1864 1 2 tcp 1040 ------- 0 1.0 2.1 16 61
+ 0.1864 2 1 ack 40 ------- 0 2.1 1.0 9 78
- 0.1864 2 1 ack 40 ------- 0 2.1 1.0 9 78
- 0.18672 1 2 tcp 1040 ------- 0 1.0 2.1 22 77
r 0.189173 1 2 tcp 1040 ------- 0 1.0 2.1 17 69
+ 0.189173 2 1 ack 40 ------- 0 2.1 1.0 9 79
- 0.189173 2 1 ack 40 ------- 0 2.1 1.0 9 79
r 0.189451 0 2 tcp 1040 ---A--- 0 0.0 2.0 10 75
+ 0.189451 2 0 ack 40 ------- 0 2.0 0.0 11 80
- 0.189451 2 0 ack 40 ------- 0 2.0 0.0 11 80
r 0.191733 2 1 ack 40 ------- 0 2.1 1.0 9 76
+ 0.191733 1 2 tcp 1040 ---A--- 0 1.0 2.1 10 81
- 0.191733 1 2 tcp 1040 ---A--- 0 1.0 2.1 10 81
r 0.191947 1 2 tcp 1040 ------- 0 1.0 2.1 19 72
+ 0.191947 2 1 ack 40 ------- 0 2.1 1.0 9 82
- 0.191947 2 1 ack 40 ------- 0 2.1 1.0 9 82
r 0.194507 2 1 ack 40 ------- 0 2.1 1.0 9 78
r 0.19472 1 2 tcp 1040 ------- 0 1.0 2.1 21 74
+ 0.19472 2 1 ack 40 ------- 0 2.1 1.0 9 83
- 0.19472 2 1 ack 40 ------- 0 2.1 1.0 9 83
r 0.19728 2 1 ack 40 ------- 0 2.1 1.0 9 79
r 0.197461 2 0 ack 40 ------- 0 2.0 0.0 11 80
+ 0.197461 0 2 tcp 1040 ------- 0 0.0 2.0 12 84
- 0.197461 0 2 tcp 1040 ------- 0 0.0 2.0 12 84
+ 0.197461 0 2 tcp 1040 ------- 0 0.0 2.0 13 85
r 0.197493 1 2 tcp 1040 ------- 0 1.0 2.1 22 77
+ 0.197493 2 1 ack 40 ------- 0 2.1 1.0 9 86
- 0.197493 2 1 ack 40 ------- 0 2.1 1.0 9 86
- 0.197739 0 2 tcp 1040 ------- 0 0.0 2.0 13 85
r 0.200053 2 1 ack 40 ------- 0 2.1 1.0 9 82
r 0.202507 1 2 tcp 1040 ---A--- 0 1.0 2.1 10 81
+ 0.202507 2 1 ack 40 ------- 0 2.1 1.0 11 87
- 0.202507 2 1 ack 40 ------- 0 2.1 1.0 11 87
r 0.202827 2 1 ack 40 ------- 0 2.1 1.0 9 83
r 0.2056 2 1 ack 40 ------- 0 2.1 1.0 9 86
r 0.205739 0 2 tcp 1040 ------- 0 0.0 2.0 12 84
+ 0.205739 2 0 ack 40 ------- 0 2.0 0.0 13 88
- 0.205739 2 0 ack 40 ------- 0 2.0 0.0 13 88
r 0.206016 0 2 tcp 1040 ------- 0 0.0 2.0 13 85
+ 0.206016 2 0 ack 40 ------- 0 2.0 0.0 13 89
- 0.206016 2 0 ack 40 ------- 0 2.0 0.0 13 89
r 0.210613 2 1 ack 40 ------- 0 2.1 1.0 11 87
+ 0.210613 1 2 tcp 1040 ------- 0 1.0 2.1 12 90
- 0.210613 1 2 tcp 1040 ------- 0 1.0 2.1 12 90
+ 0.210613 1 2 tcp 1040 ------- 0 1.0 2.1 13 91
- 0.213387 1 2 tcp 1040 ------- 0 1.0 2.1 13 91
r 0.213749 2 0 ack 40 ------- 0 2.0 0.0 13 88
+ 0.213749 0 2 tcp 1040 ------- 0 0.0 2.0 14 92
- 0.213749 0 2 tcp 1040 ------- 0 0.0 2.0 14 92
+ 0.213749 0 2 tcp 1040 ------- 0 0.0 2.0 15 93
+ 0.213749 0 2 tcp 1040 ------- 0 0.0 2.0 16 94
r 0.214027 2 0 ack 40 ------- 0 2.0 0.0 13 89
+ 0.214027 0 2 tcp 1040 ------- 0 0.0 2.0 17 95
d 0.214027 0 2 tcp 1040 ------- 0 0.0 2.0 17 95
- 0.214027 0 2 tcp 1040 ------- 0 0.0 2.0 15 93
- 0.214304 0 2 tcp 1040 ------- 0 0.0 2.0 16 94
r 0.221387 1 2 tcp 1040 ------- 0 1.0 2.1 12 90
+ 0.221387 2 1 ack 40 ------- 0 2.1 1.0 13 96
- 0.221387 2 1 ack 40 ------- 0 2.1 1.0 13 96
r 0.222027 0 2 tcp 1040 ------- 0 0.0 2.0 14 92
+ 0.222027 2 0 ack 40 ------- 0 2.0 0.0 17 97
- 0.222027 2 0 ack 40 ------- 0 2.0 0.0 17 97
r 0.222304 0 2 tcp 1040 ------- 0 0.0 2.0 15 93
+ 0.222304 2 0 ack 40 ------- 0 2.0 0.0 17 98
- 0.222304 2 0 ack 40 ------- 0 2.0 0.0 17 98
r 0.222581 0 2 tcp 1040 ------- 0 0.0 2.0 16 94
+ 0.222581 2 0 ack 40 ------- 0 2.0 0.0 17 99
- 0.222581 2 0 ack 40 ------- 0 2.0 0.0 17 99
r 0.22416 1 2 tcp 1040 ------- 0 1.0 2.1 13 91
+ 0.22416 2 1 ack 40 ------- 0 2.1 1.0 13 100
- 0.22416 2 1 ack 40 ------- 0 2.1 1.0 13 100
r 0.229493 2 1 ack 40 ------- 0 2.1 1.0 13 96
+ 0.229493 1 2 tcp 1040 ------- 0 1.0 2.1 14 101
- 0.229493 1 2 tcp 1040 ------- 0 1.0 2.1 14 101
+ 0.229493 1 2 tcp 1040 ------- 0 1.0 2.1 15 102
+ 0.229493 1 2 tcp 1040 ------- 0 1.0 2.1 16 103
r 0.230037 2 0 ack 40 ------- 0 2.0 0.0 17 97
+ 0.230037 0 2 tcp 1040 ------- 0 0.0 2.0 18 104
- 0.230037 0 2 tcp 1040 ------- 0 0.0 2.0 18 104
+ 0.230037 0 2 tcp 1040 ------- 0 0.0 2.0 19 105
+ 0.230037 0 2 tcp 1040 ------- 0 0.0 2.0 20 106
+ 0.230037 0 2 tcp 1040 ------- 0 0.0 2.0 21 107
d 0.230037 0 2 tcp 1040 ------- 0 0.0 2.0 21 107
r 0.230315 2 0 ack 40 ------- 0 2.0 0.0 17 98
+ 0.230315 0 2 tcp 1040 ------- 0 0.0 2.0 22 108
d 0.230315 0 2 tcp 1040 ------- 0 0.0 2.0 22 108
- 0.230315 0 2 tcp 1040 ------- 0 0.0 2.0 19 105
r 0.230592 2 0 ack 40 ------- 0 2.0 0.0 17 99
+ 0.230592 0 2 tcp 1040 ------- 0 0.0 2.0 23 109
- 0.230592 0 2 tcp 1040 ------- 0 0.0 2.0 20 106
- 0.230869 0 2 tcp 1040 ------- 0 0.0 2.0 23 109
r 0.232267 2 1 ack 40 ------- 0 2.1 1.0 13 100
+ 0.232267 1 2 tcp 1040 ------- 0 1.0 2.1 17 110
d 0.232267 1 2 tcp 1040 ------- 0 1.0 2.1 17 110
- 0.232267 1 2 tcp 1040 ------- 0 1.0 2.1 15 102
- 0.23504 1 2 tcp 1040 ------- 0 1.0 2.1 16 103
r 0.238315 0 2 tcp 1040 ------- 0 0.0 2.0 18 104
+ 0.238315 2 0 ack 40 ------- 0 2.0 0.0 19 111
- 0.238315 2 0 ack 40 ------- 0 2.0 0.0 19 111
r 0.238592 0 2 tcp 1040 ------- 0 0.0 2.0 19 105
+ 0.238592 2 0 ack 40 ------- 0 2.0 0.0 19 112
- 0.238592 2 0 ack 40 ------- 0 2.0 0.0 19 112
r 0.238869 0 2 tcp 1040 ------- 0 0.0 2.0 20 106
+ 0.238869 2 0 ack 40 ------- 0 2.0 0.0 22 113
- 0.238869 2 0 ack 40 ------- 0 2.0 0.0 22 113
r 0.239147 0 2 tcp 1040 ------- 0 0.0 2.0 23 109
+ 0.239147 2 0 ack 40 ------- 0 2.0 0.0 23 114
- 0.239147 2 0 ack 40 ------- 0 2.0 0.0 23 114
r 0.240267 1 2 tcp 1040 ------- 0 1.0 2.1 14 101
+ 0.240267 2 1 ack 40 ------- 0 2.1 1.0 17 115
- 0.240267 2 1 ack 40 ------- 0 2.1 1.0 17 115
r 0.24304 1 2 tcp 1040 ------- 0 1.0 2.1 15 102
+ 0.24304 2 1 ack 40 ------- 0 2.1 1.0 17 116
- 0.24304 2 1 ack 40 ------- 0 2.1 1.0 17 116
r 0.245813 1 2 tcp 1040 ------- 0 1.0 2.1 16 103
+ 0.245813 2 1 ack 40 ------- 0 2.1 1.0 17 117
- 0.245813 2 1 ack 40 ------- 0 2.1 1.0 17 117
r 0.246325 2 0 ack 40 ------- 0 2.0 0.0 19 111
+ 0.246325 0 2 tcp 1040 ------- 0 0.0 2.0 24 118
- 0.246325 0 2 tcp 1040 ------- 0 0.0 2.0 24 118
r 0.246603 2 0 ack 40 ------- 0 2.0 0.0 19 112
+ 0.246603 0 2 tcp 1040 ------- 0 0.0 2.0 25 119
- 0.246603 0 2 tcp 1040 ------- 0 0.0 2.0 25 119
r 0.24688 2 0 ack 40 ------- 0 2.0 0.0 22 113
+ 0.24688 0 2 tcp 1040 ------- 0 0.0 2.0 26 120
+ 0.24688 0 2 tcp 1040 ------- 0 0.0 2.0 27 121
- 0.24688 0 2 tcp 1040 ------- 0 0.0 2.0 26 120
r 0.247157 2 0 ack 40 ------- 0 2.0 0.0 23 114
+ 0.247157 0 2 tcp 1040 ------- 0 0.0 2.0 28 122
- 0.247157 0 2 tcp 1040 ------- 0 0.0 2.0 27 121
- 0.247435 0 2 tcp 1040 ------- 0 0.0 2.0 28 122
r 0.248373 2 1 ack 40 ------- 0 2.1 1.0 17 115
+ 0.248373 1 2 tcp 1040 ------- 0 1.0 2.1 18 123
- 0.248373 1 2 tcp 1040 ------- 0 1.0 2.1 18 123
+ 0.248373 1 2 tcp 1040 ------- 0 1.0 2.1 19 124
+ 0.248373 1 2 tcp 1040 ------- 0 1.0 2.1 20 125
+ 0.248373 1 2 tcp 1040 ------- 0 1.0 2.1 21 126
d 0.248373 1 2 tcp 1040 ------- 0 1.0 2.1 21 126
r 0.251147 2 1 ack 40 ------- 0 2.1 1.0 17 116
+ 0.251147 1 2 tcp 1040 ------- 0 1.0 2.1 22 127
d 0.251147 1 2 tcp 1040 ------- 0 1.0 2.1 22 127
- 0.251147 1 2 tcp 1040 ------- 0 1.0 2.1 19 124
r 0.25392 2 1 ack 40 ------- 0 2.1 1.0 17 117
+ 0.25392 1 2 tcp 1040 ------- 0 1.0 2.1 23 128
- 0.25392 1 2 tcp 1040 ------- 0 1.0 2.1 20 125
r 0.254603 0 2 tcp 1040 ------- 0 0.0 2.0 24 118
+ 0.254603 2 0 ack 40 ------- 0 2.0 0.0 24 129
- 0.254603 2 0 ack 40 ------- 0 2.0 0.0 24 129
r 0.25488 0 2 tcp 1040 ------- 0 0.0 2.0 25 119
+ 0.25488 2 0 ack 40 ------- 0 2.0 0.0 25 130
- 0.25488 2 0 ack 40 ------- 0 2.0 0.0 25 130
r 0.255157 0 2 tcp 1040 ------- 0 0.0 2.0 26 120
+ 0.255157 2 0 ack 40 ------- 0 2.0 0.0 26 131
- 0.255157 2 0 ack 40 ------- 0 2.0 0.0 26 131
r 0.255435 0 2 tcp 1040 ------- 0 0.0 2.0 27 121
+ 0.255435 2 0 ack 40 ------- 0 2.0 0.0 27 132
- 0.255435 2 0 ack 40 ------- 0 2.0 0.0 27 132
r 0.255712 0 2 tcp 1040 ------- 0 0.0 2.0 28 122
+ 0.255712 2 0 ack 40 ------- 0 2.0 0.0 28 133
- 0.255712 2 0 ack 40 ------- 0 2.0 0.0 28 133
- 0.256693 1 2 tcp 1040 ------- 0 1.0 2.1 23 128
r 0.259147 1 2 tcp 1040 ------- 0 1.0 2.1 18 123
+ 0.259147 2 1 ack 40 ------- 0 2.1 1.0 19 134
- 0.259147 2 1 ack 40 ------- 0 2.1 1.0 19 134
r 0.26192 1 2 tcp 1040 ------- 0 1.0 2.1 19 124
+ 0.26192 2 1 ack 40 ------- 0 2.1 1.0 19 135
- 0.26192 2 1 ack 40 ------- 0 2.1 1.0 19 135
r 0.262613 2 0 ack 40 ------- 0 2.0 0.0 24 129
+ 0.262613 0 2 tcp 1040 ------- 0 0.0 2.0 29 136
- 0.262613 0 2 tcp 1040 ------- 0 0.0 2.0 29 136
r 0.262891 2 0 ack 40 ------- 0 2.0 0.0 25 130
+ 0.262891 0 2 tcp 1040 ------- 0 0.0 2.0 30 137
- 0.262891 0 2 tcp 1040 ------- 0 0.0 2.0 30 137
r 0.263168 2 0 ack 40 ------- 0 2.0 0.0 26 131
+ 0.263168 0 2 tcp 1040 ------- 0 0.0 2.0 31 138
- 0.263168 0 2 tcp 1040 ------- 0 0.0 2.0 31 138
r 0.263445 2 0 ack 40 ------- 0 2.0 0.0 27 132
+ 0.263445 0 2 tcp 1040 ------- 0 0.0 2.0 32 139
+ 0.263445 0 2 tcp 1040 ------- 0 0.0 2.0 33 140
- 0.263445 0 2 tcp 1040 ------- 0 0.0 2.0 32 139
r 0.263723 2 0 ack 40 ------- 0 2.0 0.0 28 133
+ 0.263723 0 2 tcp 1040 ------- 0 0.0 2.0 34 141
- 0.263723 0 2 tcp 1040 ------- 0 0.0 2.0 33 140
- 0.264 0 2 tcp 1040 ------- 0 0.0 2.0 34 141
r 0.264693 1 2 tcp 1040 ------- 0 1.0 2.1 20 125
+ 0.264693 2 1 ack 40 ------- 0 2.1 1.0 22 142
- 0.264693 2 1 ack 40 ------- 0 2.1 1.0 22 142
r 0.267253 2 1 ack 40 ------- 0 2.1 1.0 19 134
+ 0.267253 1 2 tcp 1040 ------- 0 1.0 2.1 24 143
- 0.267253 1 2 tcp 1040 ------- 0 1.0 2.1 24 143
r 0.267467 1 2 tcp 1040 ------- 0 1.0 2.1 23 128
+ 0.267467 2 1 ack 40 ------- 0 2.1 1.0 23 144
- 0.267467 2 1 ack 40 ------- 0 2.1 1.0 23 144
r 0.270027 2 1 ack 40 ------- 0 2.1 1.0 19 135
+ 0.270027 1 2 tcp 1040 ------- 0 1.0 2.1 25 145
- 0.270027 1 2 tcp 1040 ------- 0 1.0 2.1 25 145
r 0.270891 0 2 tcp 1040 ------- 0 0.0 2.0 29 136
+ 0.270891 2 0 ack 40 ------- 0 2.0 0.0 29 146
- 0.270891 2 0 ack 40 ------- 0 2.0 0.0 29 146
r 0.271168 0 2 tcp 1040 ------- 0 0.0 2.0 30 137
+ 0.271168 2 0 ack 40 ------- 0 2.0 0.0 30 147
- 0.271168 2 0 ack 40 ------- 0 2.0 0.0 30 147
r 0.271445 0 2 tcp 1040 ------- 0 0.0 2.0 31 138
+ 0.271445 2 0 ack 40 ------- 0 2.0 0.0 31 148
- 0.271445 2 0 ack 40 ------- 0 2.0 0.0 31 148
r 0.271723 0 2 tcp 1040 ------- 0 0.0 2.0 32 139
+ 0.271723 2 0 ack 40 ------- 0 2.0 0.0 32 149
- 0.271723 2 0 ack 40 ------- 0 2.0 0.0 32 149
r 0.272 0 2 tcp 1040 ------- 0 0.0 2.0 33 140
+ 0.272 2 0 ack 40 ------- 0 2.0 0.0 33 150
- 0.272 2 0 ack 40 ------- 0 2.0 0.0 33 150
r 0.272277 0 2 tcp 1040 ------- 0 0.0 2.0 34 141
+ 0.272277 2 0 ack 40 ------- 0 2.0 0.0 34 151
- 0.272277 2 0 ack 40 ------- 0 2.0 0.0 34 151
r 0.2728 2 1 ack 40 ------- 0 2.1 1.0 22 142
+ 0.2728 1 2 tcp 1040 ------- 0 1.0 2.1 26 152
+ 0.2728 1 2 tcp 1040 ------- 0 1.0 2.1 27 153
- 0.2728 1 2 tcp 1040 ------- 0 1.0 2.1 26 152
r 0.275573 2 1 ack 40 ------- 0 2.1 1.0 23 144
+ 0.275573 1 2 tcp 1040 ------- 0 1.0 2.1 28 154
- 0.275573 1 2 tcp 1040 ------- 0 1.0 2.1 27 153
r 0.278027 1 2 tcp 1040 ------- 0 1.0 2.1 24 143
+ 0.278027 2 1 ack 40 ------- 0 2.1 1.0 24 155
- 0.278027 2 1 ack 40 ------- 0 2.1 1.0 24 155
- 0.278347 1 2 tcp 1040 ------- 0 1.0 2.1 28 154
r 0.278901 2 0 ack 40 ------- 0 2.0 0.0 29 146
+ 0.278901 0 2 tcp 1040 ------- 0 0.0 2.0 35 156
- 0.278901 0 2 tcp 1040 ------- 0 0.0 2.0 35 156
r 0.279179 2 0 ack 40 ------- 0 2.0 0.0 30 147
+ 0.279179 0 2 tcp 1040 ------- 0 0.0 2.0 36 157
- 0.279179 0 2 tcp 1040 ------- 0 0.0 2.0 36 157
r 0.279456 2 0 ack 40 ------- 0 2.0 0.0 31 148
+ 0.279456 0 2 tcp 1040 ------- 0 0.0 2.0 37 158
- 0.279456 0 2 tcp 1040 ------- 0 0.0 2.0 37 158
r 0.279733 2 0 ack 40 ------- 0 2.0 0.0 32 149
+ 0.279733 0 2 tcp 1040 ------- 0 0.0 2.0 38 159
- 0.279733 0 2 tcp 1040 ------- 0 0.0 2.0 38 159
r 0.280011 2 0 ack 40 ------- 0 2.0 0.0 33 150
+ 0.280011 0 2 tcp 1040 ------- 0 0.0 2.0 39 160
+ 0.280011 0 2 tcp 1040 ------- 0 0.0 2.0 40 161
- 0.280011 0 2 tcp 1040 ------- 0 0.0 2.0 39 160
r 0.280288 2 0 ack 40 ------- 0 2.0 0.0 34 151
+ 0.280288 0 2 tcp 1040 ------- 0 0.0 2.0 41 162
- 0.280288 0 2 tcp 1040 ------- 0 0.0 2.0 40 161
- 0.280565 0 2 tcp 1040 ------- 0 0.0 2.0 41 162
r 0.2808 1 2 tcp 1040 ------- 0 1.0 2.1 25 145
+ 0.2808 2 1 ack 40 ------- 0 2.1 1.0 25 163
- 0.2808 2 1 ack 40 ------- 0 2.1 1.0 25 163
r 0.283573 1 2 tcp 1040 ------- 0 1.0 2.1 26 152
+ 0.283573 2 1 ack 40 ------- 0 2.1 1.0 26 164
- 0.283573 2 1 ack 40 ------- 0 2.1 1.0 26 164
r 0.286133 2 1 ack 40 ------- 0 2.1 1.0 24 155
+ 0.286133 1 2 tcp 1040 ------- 0 1.0 2.1 29 165
- 0.286133 1 2 tcp 1040 ------- 0 1.0 2.1 29 165
r 0.286347 1 2 tcp 1040 ------- 0 1.0 2.1 27 153
+ 0.286347 2 1 ack 40 ------- 0 2.1 1.0 27 166
- 0.286347 2 1 ack 40 ------- 0 2.1 1.0 27 166
r 0.287179 0 2 tcp 1040 ------- 0 0.0 2.0 35 156
+ 0.287179 2 0 ack 40 ------- 0 2.0 0.0 35 167
- 0.287179 2 0 ack 40 ------- 0 2.0 0.0 35 167
r 0.287456 0 2 tcp 1040 ------- 0 0.0 2.0 36 157
+ 0.287456 2 0 ack 40 ------- 0 2.0 0.0 36 168
- 0.287456 2 0 ack 40 ------- 0 2.0 0.0 36 168
r 0.287733 0 2 tcp 1040 ------- 0 0.0 2.0 37 158
+ 0.287733 2 0 ack 40 ------- 0 2.0 0.0 37 169
- 0.287733 2 0 ack 40 ------- 0 2.0 0.0 37 169
r 0.288011 0 2 tcp 1040 ------- 0 0.0 2.0 38 159
+ 0.288011 2 0 ack 40 ------- 0 2.0 0.0 38 170
- 0.288011 2 0 ack 40 ------- 0 2.0 0.0 38 170
r 0.288288 0 2 tcp 1040 ------- 0 0.0 2.0 39 160
+ 0.288288 2 0 ack 40 ------- 0 2.0 0.0 39 171
- 0.288288 2 0 ack 40 ------- 0 2.0 0.0 39 171
r 0.288565 0 2 tcp 1040 ------- 0 0.0 2.0 40 161
+ 0.288565 2 0 ack 40 ------- 0 2.0 0.0 40 172
- 0.288565 2 0 ack 40 ------- 0 2.0 0.0 40 172
r 0.288843 0 2 tcp 1040 ------- 0 0.0 2.0 41 162
+ 0.288843 2 0 ack 40 ------- 0 2.0 0.0 41 173
- 0.288843 2 0 ack 40 ------- 0 2.0 0.0 41 173
r 0.288907 2 1 ack 40 ------- 0 2.1 1.0 25 163
+ 0.288907 1 2 tcp 1040 ------- 0 1.0 2.1 30 174
- 0.288907 1 2 tcp 1040 ------- 0 1.0 2.1 30 174
r 0.28912 1 2 tcp 1040 ------- 0 1.0 2.1 28 154
+ 0.28912 2 1 ack 40 ------- 0 2.1 1.0 28 175
- 0.28912 2 1 ack 40 ------- 0 2.1 1.0 28 175
r 0.29168 2 1 ack 40 ------- 0 2.1 1.0 26 164
+ 0.29168 1 2 tcp 1040 ------- 0 1.0 2.1 31 176
- 0.29168 1 2 tcp 1040 ------- 0 1.0 2.1 31 176
r 0.294453 2 1 ack 40 ------- 0 2.1 1.0 27 166
+ 0.294453 1 2 tcp 1040 ------- 0 1.0 2.1 32 177
+ 0.294453 1 2 tcp 1040 ------- 0 1.0 2.1 33 178
- 0.294453 1 2 tcp 1040 ------- 0 1.0 2.1 32 177
r 0.295189 2 0 ack 40 ------- 0 2.0 0.0 35 167
+ 0.295189 0 2 tcp 1040 ------- 0 0.0 2.0 42 179
- 0.295189 0 2 tcp 1040 ------- 0 0.0 2.0 42 179
r 0.295467 2 0 ack 40 ------- 0 2.0 0.0 36 168
+ 0.295467 0 2 tcp 1040 ------- 0 0.0 2.0 43 180
- 0.295467 0 2 tcp 1040 ------- 0 0.0 2.0 43 180
r 0.295744 2 0 ack 40 ------- 0 2.0 0.0 37 169
+ 0.295744 0 2 tcp 1040 ------- 0 0.0 2.0 44 181
- 0.295744 0 2 tcp 1040 ------- 0 0.0 2.0 44 181
r 0.296021 2 0 ack 40 ------- 0 2.0 0.0 38 170
+ 0.296021 0 2 tcp 1040 ------- 0 0.0 2.0 45 182
- 0.296021 0 2 tcp 1040 ------- 0 0.0 2.0 45 182
r 0.296299 2 0 ack 40 ------- 0 2.0 0.0 39 171
+ 0.296299 0 2 tcp 1040 ------- 0 0.0 2.0 46 183
- 0.296299 0 2 tcp 1040 ------- 0 0.0 2.0 46 183
r 0.296576 2 0 ack 40 ------- 0 2.0 0.0 40 172
+ 0.296576 0 2 tcp 1040 ------- 0 0.0 2.0 47 184
- 0.296576 0 2 tcp 1040 ------- 0 0.0 2.0 47 184
r 0.296853 2 0 ack 40 ------- 0 2.0 0.0 41 173
+ 0.296853 0 2 tcp 1040 ------- 0 0.0 2.0 48 185
+ 0.296853 0 2 tcp 1040 ------- 0 0.0 2.0 49 186
- 0.296853 0 2 tcp 1040 ------- 0 0.0 2.0 48 185
r 0.296907 1 2 tcp 1040 ------- 0 1.0 2.1 29 165
+ 0.296907 2 1 ack 40 ------- 0 2.1 1.0 29 187
- 0.296907 2 1 ack 40 ------- 0 2.1 1.0 29 187
- 0.297131 0 2 tcp 1040 ------- 0 0.0 2.0 49 186
r 0.297227 2 1 ack 40 ------- 0 2.1 1.0 28 175
+ 0.297227 1 2 tcp 1040 ------- 0 1.0 2.1 34 188
- 0.297227 1 2 tcp 1040 ------- 0 1.0 2.1 33 178
r 0.29968 1 2 tcp 1040 ------- 0 1.0 2.1 30 174
+ 0.29968 2 1 ack 40 ------- 0 2.1 1.0 30 189
- 0.29968 2 1 ack 40 ------- 0 2.1 1.0 30 189
- 0.3 1 2 tcp 1040 ------- 0 1.0 2.1 34 188
r 0.302453 1 2 tcp 1040 ------- 0 1.0 2.1 31 176
+ 0.302453 2 1 ack 40 ------- 0 2.1 1.0 31 190
- 0.302453 2 1 ack 40 ------- 0 2.1 1.0 31 190
r 0.303467 0 2 tcp 1040 ------- 0 0.0 2.0 42 179
+ 0.303467 2 0 ack 40 ------- 0 2.0 0.0 42 191
- 0.303467 2 0 ack 40 ------- 0 2.0 0.0 42 191
r 0.303744 0 2 tcp 1040 ------- 0 0.0 2.0 43 180
+ 0.303744 2 0 ack 40 ------- 0 2.0 0.0 43 192
- 0.303744 2 0 ack 40 ------- 0 2.0 0.0 43 192
r 0.304021 0 2 tcp 1040 ------- 0 0.0 2.0 44 181
+ 0.304021 2 0 ack 40 ------- 0 2.0 0.0 44 193
- 0.304021 2 0 ack 40 ------- 0 2.0 0.0 44 193
r 0.304299 0 2 tcp 1040 ------- 0 0.0 2.0 45 182
+ 0.304299 2 0 ack 40 ------- 0 2.0 0.0 45 194
- 0.304299 2 0 ack 40 ------- 0 2.0 0.0 45 194
r 0.304576 0 2 tcp 1040 ------- 0 0.0 2.0 46 183
+ 0.304576 2 0 ack 40 ------- 0 2.0 0.0 46 195
- 0.304576 2 0 ack 40 ------- 0 2.0 0.0 46 195
r 0.304853 0 2 tcp 1040 ------- 0 0.0 2.0 47 184
+ 0.304853 2 0 ack 40 ------- 0 2.0 0.0 47 196
- 0.304853 2 0 ack 40 ------- 0 2.0 0.0 47 196
r 0.305013 2 1 ack 40 ------- 0 2.1 1.0 29 187
+ 0.305013 1 2 tcp 1040 ------- 0 1.0 2.1 35 197
- 0.305013 1 2 tcp 1040 ------- 0 1.0 2.1 35 197
r 0.305131 0 2 tcp 1040 ------- 0 0.0 2.0 48 185
+ 0.305131 2 0 ack 40 ------- 0 2.0 0.0 48 198
- 0.305131 2 0 ack 40 ------- 0 2.0 0.0 48 198
r 0.305227 1 2 tcp 1040 ------- 0 1.0 2.1 32 177
+ 0.305227 2 1 ack 40 ------- 0 2.1 1.0 32 199
- 0.305227 2 1 ack 40 ------- 0 2.1 1.0 32 199
r 0.305408 0 2 tcp 1040 ------- 0 0.0 2.0 49 186
+ 0.305408 2 0 ack 40 ------- 0 2.0 0.0 49 200
- 0.305408 2 0 ack 40 ------- 0 2.0 0.0 49 200
r 0.307787 2 1 ack 40 ------- 0 2.1 1.0 30 189
+ 0.307787 1 2 tcp 1040 ------- 0 1.0 2.1 36 201
- 0.307787 1 2 tcp 1040 ------- 0 1.0 2.1 36 201
r 0.308 1 2 tcp 1040 ------- 0 1.0 2.1 33 178
+ 0.308 2 1 ack 40 ------- 0 2.1 1.0 33 202
- 0.308 2 1 ack 40 ------- 0 2.1 1.0 33 202
r 0.31056 2 1 ack 40 ------- 0 2.1 1.0 31 190
+ 0.31056 1 2 tcp 1040 ------- 0 1.0 2.1 37 203
- 0.31056 1 2 tcp 1040 ------- 0 1.0 2.1 37 203
r 0.310773 1 2 tcp 1040 ------- 0 1.0 2.1 34 188
+ 0.310773 2 1 ack 40 ------- 0 2.1 1.0 34 204
- 0.310773 2 1 ack 40 ------- 0 2.1 1.0 34 204
r 0.311477 2 0 ack 40 ------- 0 2.0 0.0 42 191
+ 0.311477 0 2 tcp 1040 ------- 0 0.0 2.0 50 205
- 0.311477 0 2 tcp 1040 ------- 0 0.0 2.0 50 205
r 0.311755 2 0 ack 40 ------- 0 2.0 0.0 43 192
+ 0.311755 0 2 tcp 1040 ------- 0 0.0 2.0 51 206
- 0.311755 0 2 tcp 1040 ------- 0 0.0 2.0 51 206
r 0.312032 2 0 ack 40 ------- 0 2.0 0.0 44 193
+ 0.312032 0 2 tcp 1040 ------- 0 0.0 2.0 52 207
- 0.312032 0 2 tcp 1040 ------- 0 0.0 2.0 52 207
r 0.312309 2 0 ack 40 ------- 0 2.0 0.0 45 194
+ 0.312309 0 2 tcp 1040 ------- 0 0.0 2.0 53 208
- 0.312309 0 2 tcp 1040 ------- 0 0.0 2.0 53 208
r 0.312587 2 0 ack 40 ------- 0 2.0 0.0 46 195
+ 0.312587 0 2 tcp 1040 ------- 0 0.0 2.0 54 209
- 0.312587 0 2 tcp 1040 ------- 0 0.0 2.0 54 209
r 0.312864 2 0 ack 40 ------- 0 2.0 0.0 47 196
+ 0.312864 0 2 tcp 1040 ------- 0 0.0 2.0 55 210
- 0.312864 0 2 tcp 1040 ------- 0 0.0 2.0 55 210
r 0.313141 2 0 ack 40 ------- 0 2.0 0.0 48 198
+ 0.313141 0 2 tcp 1040 ------- 0 0.0 2.0 56 211
- 0.313141 0 2 tcp 1040 ------- 0 0.0 2.0 56 211
r 0.313333 2 1 ack 40 ------- 0 2.1 1.0 32 199
+ 0.313333 1 2 tcp 1040 ------- 0 1.0 2.1 38 212
- 0.313333 1 2 tcp 1040 ------- 0 1.0 2.1 38 212
r 0.313419 2 0 ack 40 ------- 0 2.0 0.0 49 200
+ 0.313419 0 2 tcp 1040 ------- 0 0.0 2.0 57 213
+ 0.313419 0 2 tcp 1040 ------- 0 0.0 2.0 58 214
- 0.313419 0 2 tcp 1040 ------- 0 0.0 2.0 57 213
- 0.313696 0 2 tcp 1040 ------- 0 0.0 2.0 58 214
r 0.315787 1 2 tcp 1040 ------- 0 1.0 2.1 35 197
+ 0.315787 2 1 ack 40 ------- 0 2.1 1.0 35 215
- 0.315787 2 1 ack 40 ------- 0 2.1 1.0 35 215
r 0.316107 2 1 ack 40 ------- 0 2.1 1.0 33 202
+ 0.316107 1 2 tcp 1040 ------- 0 1.0 2.1 39 216
+ 0.316107 1 2 tcp 1040 ------- 0 1.0 2.1 40 217
- 0.316107 1 2 tcp 1040 ------- 0 1.0 2.1 39 216
r 0.31856 1 2 tcp 1040 ------- 0 1.0 2.1 36 201
+ 0.31856 2 1 ack 40 ------- 0 2.1 1.0 36 218
- 0.31856 2 1 ack 40 ------- 0 2.1 1.0 36 218
r 0.31888 2 1 ack 40 ------- 0 2.1 1.0 34 204
+ 0.31888 1 2 tcp 1040 ------- 0 1.0 2.1 41 219
- 0.31888 1 2 tcp 1040 ------- 0 1.0 2.1 40 217
r 0.319755 0 2 tcp 1040 ------- 0 0.0 2.0 50 205
+ 0.319755 2 0 ack 40 ------- 0 2.0 0.0 50 220
- 0.319755 2 0 ack 40 ------- 0 2.0 0.0 50 220
r 0.320032 0 2 tcp 1040 ------- 0 0.0 2.0 51 206
+ 0.320032 2 0 ack 40 ------- 0 2.0 0.0 51 221
- 0.320032 2 0 ack 40 ------- 0 2.0 0.0 51 221
r 0.320309 0 2 tcp 1040 ------- 0 0.0 2.0 52 207
+ 0.320309 2 0 ack 40 ------- 0 2.0 0.0 52 222
- 0.320309 2 0 ack 40 ------- 0 2.0 0.0 52 222
r 0.320587 0 2 tcp 1040 ------- 0 0.0 2.0 53 208